------------------------------------------------------------
          Invoking FHI-aims ...

          When using FHI-aims, please cite the following reference:

            Volker Blum, Ralf Gehrke, Felix Hanke, Paula Havu,
            Ville Havu, Xinguo Ren, Karsten Reuter, and Matthias Scheffler,
            'Ab Initio Molecular Simulations with Numeric Atom-Centered Orbitals',
            Computer Physics Communications 180, 2175-2196 (2009)

          In addition, many other developments in FHI-aims are likely important for
          your particular application. A partial list of references is given at the end of
          this file. Thank you for giving credit to the authors of these developments.

          For any questions about FHI-aims, please visit our slack channel at

            https://fhi-aims.slack.com

          and our main development and support site at

            https://aims-git.rz-berlin.mpg.de .

          The latter site, in particular, has a wiki to collect information, as well
          as an issue tracker to log discussions, suggest improvements, and report issues
          or bugs. https://aims-git.rz-berlin.mpg.de is also the main development site
          of the project and all new and updated code versions can be obtained there.
          Please send an email to aims-coordinators@fhi-berlin.mpg.de and we will add
          you to these sites. They are for you and everyone is welcome there.

------------------------------------------------------------



  Date     :  20240514, Time     :  220437.441
  Time zero on CPU 1             :   0.138607300000000E+01  s.
  Internal wall clock time zero  :           484956277.441  s.

  FHI-aims created a unique identifier for this run for later identification
  aims_uuid : D05A569E-65F5-43B3-A924-5E1D0ED334E7

  Build configuration of the current instance of FHI-aims
  -------------------------------------------------------
  FHI-aims version      : 210807
  Commit number         : c21600046
  CMake host system     : Linux-4.12.14-197.78-default
  CMake version         : 3.16.5
  Fortran compiler      : /dss/dsshome1/lrz/sys/spack/release/21.1.1/opt/x86_64/intel-mpi/2019.8.254-gcc-vyzek4m/compilers_and_libraries_2020.2.254/linux/mpi/intel64/bin/mpiifort (Intel) version 19.0.5.20190815
  Fortran compiler flags: -O3 -ip -fp-model precise
  C compiler            : /dss/dsshome1/lrz/sys/spack/release/21.1.1/opt/x86_64/intel/19.0.5-gcc-uglchea/bin/icc (Intel) version 19.0.5.20190815
  C compiler flags      : -O3 -ip -fp-model precise -std=gnu99
  ELPA2 kernel          : AVX512
  Using MPI
  Using ScaLAPACK
  Using LibXC
  Using i-PI
  Using RLSY
  Linking against: /dss/dsshome1/lrz/sys/spack/release/21.1.1/opt/x86_64/intel-mkl/2019.5.281-gcc-2gmjfxz/mkl/lib/intel64_lin/libmkl_intel_lp64.so
                   /dss/dsshome1/lrz/sys/spack/release/21.1.1/opt/x86_64/intel-mkl/2019.5.281-gcc-2gmjfxz/mkl/lib/intel64_lin/libmkl_sequential.so
                   /dss/dsshome1/lrz/sys/spack/release/21.1.1/opt/x86_64/intel-mkl/2019.5.281-gcc-2gmjfxz/mkl/lib/intel64_lin/libmkl_core.so
                   /dss/dsshome1/lrz/sys/spack/release/21.1.1/opt/x86_64/intel-mkl/2019.5.281-gcc-2gmjfxz/mkl/lib/intel64_lin/libmkl_scalapack_lp64.so
                   /dss/dsshome1/lrz/sys/spack/release/21.1.1/opt/x86_64/intel-mkl/2019.5.281-gcc-2gmjfxz/mkl/lib/intel64_lin/libmkl_blacs_intelmpi_lp64.so

  Using      816 parallel tasks.
  Task        0 on host i06r07c06s11 reporting.
  Task        1 on host i06r07c06s11 reporting.
  Task        2 on host i06r07c06s11 reporting.
  Task        3 on host i06r07c06s11 reporting.
  Task        4 on host i06r07c06s11 reporting.
  Task        5 on host i06r07c06s11 reporting.
  Task        6 on host i06r07c06s11 reporting.
  Task        7 on host i06r07c06s11 reporting.
  Task        8 on host i06r07c06s11 reporting.
  Task        9 on host i06r07c06s11 reporting.
  Task       10 on host i06r07c06s11 reporting.
  Task       11 on host i06r07c06s11 reporting.
  Task       12 on host i06r07c06s11 reporting.
  Task       13 on host i06r07c06s11 reporting.
  Task       14 on host i06r07c06s11 reporting.
  Task       15 on host i06r07c06s11 reporting.
  Task       16 on host i06r07c06s11 reporting.
  Task       17 on host i06r07c06s11 reporting.
  Task       18 on host i06r07c06s11 reporting.
  Task       19 on host i06r07c06s11 reporting.
  Task       20 on host i06r07c06s11 reporting.
  Task       21 on host i06r07c06s11 reporting.
  Task       22 on host i06r07c06s11 reporting.
  Task       23 on host i06r07c06s11 reporting.
  Task       24 on host i06r07c06s11 reporting.
  Task       25 on host i06r07c06s11 reporting.
  Task       26 on host i06r07c06s11 reporting.
  Task       27 on host i06r07c06s11 reporting.
  Task       28 on host i06r07c06s11 reporting.
  Task       29 on host i06r07c06s11 reporting.
  Task       30 on host i06r07c06s11 reporting.
  Task       31 on host i06r07c06s11 reporting.
  Task       32 on host i06r07c06s11 reporting.
  Task       33 on host i06r07c06s11 reporting.
  Task       34 on host i06r07c06s11 reporting.
  Task       35 on host i06r07c06s11 reporting.
  Task       36 on host i06r07c06s11 reporting.
  Task       37 on host i06r07c06s11 reporting.
  Task       38 on host i06r07c06s11 reporting.
  Task       39 on host i06r07c06s11 reporting.
  Task       40 on host i06r07c06s11 reporting.
  Task       41 on host i06r07c06s11 reporting.
  Task       42 on host i06r07c06s11 reporting.
  Task       43 on host i06r07c06s11 reporting.
  Task       44 on host i06r07c06s11 reporting.
  Task       45 on host i06r07c06s11 reporting.
  Task       46 on host i06r07c06s11 reporting.
  Task       47 on host i06r07c06s11 reporting.
  Task       48 on host i06r07c06s12 reporting.
  Task       49 on host i06r07c06s12 reporting.
  Task       50 on host i06r07c06s12 reporting.
  Task       51 on host i06r07c06s12 reporting.
  Task       52 on host i06r07c06s12 reporting.
  Task       53 on host i06r07c06s12 reporting.
  Task       54 on host i06r07c06s12 reporting.
  Task       55 on host i06r07c06s12 reporting.
  Task       56 on host i06r07c06s12 reporting.
  Task       57 on host i06r07c06s12 reporting.
  Task       58 on host i06r07c06s12 reporting.
  Task       59 on host i06r07c06s12 reporting.
  Task       60 on host i06r07c06s12 reporting.
  Task       61 on host i06r07c06s12 reporting.
  Task       62 on host i06r07c06s12 reporting.
  Task       63 on host i06r07c06s12 reporting.
  Task       64 on host i06r07c06s12 reporting.
  Task       65 on host i06r07c06s12 reporting.
  Task       66 on host i06r07c06s12 reporting.
  Task       67 on host i06r07c06s12 reporting.
  Task       68 on host i06r07c06s12 reporting.
  Task       69 on host i06r07c06s12 reporting.
  Task       70 on host i06r07c06s12 reporting.
  Task       71 on host i06r07c06s12 reporting.
  Task       72 on host i06r07c06s12 reporting.
  Task       73 on host i06r07c06s12 reporting.
  Task       74 on host i06r07c06s12 reporting.
  Task       75 on host i06r07c06s12 reporting.
  Task       76 on host i06r07c06s12 reporting.
  Task       77 on host i06r07c06s12 reporting.
  Task       78 on host i06r07c06s12 reporting.
  Task       79 on host i06r07c06s12 reporting.
  Task       80 on host i06r07c06s12 reporting.
  Task       81 on host i06r07c06s12 reporting.
  Task       82 on host i06r07c06s12 reporting.
  Task       83 on host i06r07c06s12 reporting.
  Task       84 on host i06r07c06s12 reporting.
  Task       85 on host i06r07c06s12 reporting.
  Task       86 on host i06r07c06s12 reporting.
  Task       87 on host i06r07c06s12 reporting.
  Task       88 on host i06r07c06s12 reporting.
  Task       89 on host i06r07c06s12 reporting.
  Task       90 on host i06r07c06s12 reporting.
  Task       91 on host i06r07c06s12 reporting.
  Task       92 on host i06r07c06s12 reporting.
  Task       93 on host i06r07c06s12 reporting.
  Task       94 on host i06r07c06s12 reporting.
  Task       95 on host i06r07c06s12 reporting.
  Task       96 on host i06r08c01s01 reporting.
  Task       97 on host i06r08c01s01 reporting.
  Task       98 on host i06r08c01s01 reporting.
  Task       99 on host i06r08c01s01 reporting.
  Task      100 on host i06r08c01s01 reporting.
  Task      101 on host i06r08c01s01 reporting.
  Task      102 on host i06r08c01s01 reporting.
  Task      103 on host i06r08c01s01 reporting.
  Task      104 on host i06r08c01s01 reporting.
  Task      105 on host i06r08c01s01 reporting.
  Task      106 on host i06r08c01s01 reporting.
  Task      107 on host i06r08c01s01 reporting.
  Task      108 on host i06r08c01s01 reporting.
  Task      109 on host i06r08c01s01 reporting.
  Task      110 on host i06r08c01s01 reporting.
  Task      111 on host i06r08c01s01 reporting.
  Task      112 on host i06r08c01s01 reporting.
  Task      113 on host i06r08c01s01 reporting.
  Task      114 on host i06r08c01s01 reporting.
  Task      115 on host i06r08c01s01 reporting.
  Task      116 on host i06r08c01s01 reporting.
  Task      117 on host i06r08c01s01 reporting.
  Task      118 on host i06r08c01s01 reporting.
  Task      119 on host i06r08c01s01 reporting.
  Task      120 on host i06r08c01s01 reporting.
  Task      121 on host i06r08c01s01 reporting.
  Task      122 on host i06r08c01s01 reporting.
  Task      123 on host i06r08c01s01 reporting.
  Task      124 on host i06r08c01s01 reporting.
  Task      125 on host i06r08c01s01 reporting.
  Task      126 on host i06r08c01s01 reporting.
  Task      127 on host i06r08c01s01 reporting.
  Task      128 on host i06r08c01s01 reporting.
  Task      129 on host i06r08c01s01 reporting.
  Task      130 on host i06r08c01s01 reporting.
  Task      131 on host i06r08c01s01 reporting.
  Task      132 on host i06r08c01s01 reporting.
  Task      133 on host i06r08c01s01 reporting.
  Task      134 on host i06r08c01s01 reporting.
  Task      135 on host i06r08c01s01 reporting.
  Task      136 on host i06r08c01s01 reporting.
  Task      137 on host i06r08c01s01 reporting.
  Task      138 on host i06r08c01s01 reporting.
  Task      139 on host i06r08c01s01 reporting.
  Task      140 on host i06r08c01s01 reporting.
  Task      141 on host i06r08c01s01 reporting.
  Task      142 on host i06r08c01s01 reporting.
  Task      143 on host i06r08c01s01 reporting.
  Task      144 on host i06r08c01s02 reporting.
  Task      145 on host i06r08c01s02 reporting.
  Task      146 on host i06r08c01s02 reporting.
  Task      147 on host i06r08c01s02 reporting.
  Task      148 on host i06r08c01s02 reporting.
  Task      149 on host i06r08c01s02 reporting.
  Task      150 on host i06r08c01s02 reporting.
  Task      151 on host i06r08c01s02 reporting.
  Task      152 on host i06r08c01s02 reporting.
  Task      153 on host i06r08c01s02 reporting.
  Task      154 on host i06r08c01s02 reporting.
  Task      155 on host i06r08c01s02 reporting.
  Task      156 on host i06r08c01s02 reporting.
  Task      157 on host i06r08c01s02 reporting.
  Task      158 on host i06r08c01s02 reporting.
  Task      159 on host i06r08c01s02 reporting.
  Task      160 on host i06r08c01s02 reporting.
  Task      161 on host i06r08c01s02 reporting.
  Task      162 on host i06r08c01s02 reporting.
  Task      163 on host i06r08c01s02 reporting.
  Task      164 on host i06r08c01s02 reporting.
  Task      165 on host i06r08c01s02 reporting.
  Task      166 on host i06r08c01s02 reporting.
  Task      167 on host i06r08c01s02 reporting.
  Task      168 on host i06r08c01s02 reporting.
  Task      169 on host i06r08c01s02 reporting.
  Task      170 on host i06r08c01s02 reporting.
  Task      171 on host i06r08c01s02 reporting.
  Task      172 on host i06r08c01s02 reporting.
  Task      173 on host i06r08c01s02 reporting.
  Task      174 on host i06r08c01s02 reporting.
  Task      175 on host i06r08c01s02 reporting.
  Task      176 on host i06r08c01s02 reporting.
  Task      177 on host i06r08c01s02 reporting.
  Task      178 on host i06r08c01s02 reporting.
  Task      179 on host i06r08c01s02 reporting.
  Task      180 on host i06r08c01s02 reporting.
  Task      181 on host i06r08c01s02 reporting.
  Task      182 on host i06r08c01s02 reporting.
  Task      183 on host i06r08c01s02 reporting.
  Task      184 on host i06r08c01s02 reporting.
  Task      185 on host i06r08c01s02 reporting.
  Task      186 on host i06r08c01s02 reporting.
  Task      187 on host i06r08c01s02 reporting.
  Task      188 on host i06r08c01s02 reporting.
  Task      189 on host i06r08c01s02 reporting.
  Task      190 on host i06r08c01s02 reporting.
  Task      191 on host i06r08c01s02 reporting.
  Task      192 on host i06r08c01s03 reporting.
  Task      193 on host i06r08c01s03 reporting.
  Task      194 on host i06r08c01s03 reporting.
  Task      195 on host i06r08c01s03 reporting.
  Task      196 on host i06r08c01s03 reporting.
  Task      197 on host i06r08c01s03 reporting.
  Task      198 on host i06r08c01s03 reporting.
  Task      199 on host i06r08c01s03 reporting.
  Task      200 on host i06r08c01s03 reporting.
  Task      201 on host i06r08c01s03 reporting.
  Task      202 on host i06r08c01s03 reporting.
  Task      203 on host i06r08c01s03 reporting.
  Task      204 on host i06r08c01s03 reporting.
  Task      205 on host i06r08c01s03 reporting.
  Task      206 on host i06r08c01s03 reporting.
  Task      207 on host i06r08c01s03 reporting.
  Task      208 on host i06r08c01s03 reporting.
  Task      209 on host i06r08c01s03 reporting.
  Task      210 on host i06r08c01s03 reporting.
  Task      211 on host i06r08c01s03 reporting.
  Task      212 on host i06r08c01s03 reporting.
  Task      213 on host i06r08c01s03 reporting.
  Task      214 on host i06r08c01s03 reporting.
  Task      215 on host i06r08c01s03 reporting.
  Task      216 on host i06r08c01s03 reporting.
  Task      217 on host i06r08c01s03 reporting.
  Task      218 on host i06r08c01s03 reporting.
  Task      219 on host i06r08c01s03 reporting.
  Task      220 on host i06r08c01s03 reporting.
  Task      221 on host i06r08c01s03 reporting.
  Task      222 on host i06r08c01s03 reporting.
  Task      223 on host i06r08c01s03 reporting.
  Task      224 on host i06r08c01s03 reporting.
  Task      225 on host i06r08c01s03 reporting.
  Task      226 on host i06r08c01s03 reporting.
  Task      227 on host i06r08c01s03 reporting.
  Task      228 on host i06r08c01s03 reporting.
  Task      229 on host i06r08c01s03 reporting.
  Task      230 on host i06r08c01s03 reporting.
  Task      231 on host i06r08c01s03 reporting.
  Task      232 on host i06r08c01s03 reporting.
  Task      233 on host i06r08c01s03 reporting.
  Task      234 on host i06r08c01s03 reporting.
  Task      235 on host i06r08c01s03 reporting.
  Task      236 on host i06r08c01s03 reporting.
  Task      237 on host i06r08c01s03 reporting.
  Task      238 on host i06r08c01s03 reporting.
  Task      239 on host i06r08c01s03 reporting.
  Task      240 on host i06r08c01s04 reporting.
  Task      241 on host i06r08c01s04 reporting.
  Task      242 on host i06r08c01s04 reporting.
  Task      243 on host i06r08c01s04 reporting.
  Task      244 on host i06r08c01s04 reporting.
  Task      245 on host i06r08c01s04 reporting.
  Task      246 on host i06r08c01s04 reporting.
  Task      247 on host i06r08c01s04 reporting.
  Task      248 on host i06r08c01s04 reporting.
  Task      249 on host i06r08c01s04 reporting.
  Task      250 on host i06r08c01s04 reporting.
  Task      251 on host i06r08c01s04 reporting.
  Task      252 on host i06r08c01s04 reporting.
  Task      253 on host i06r08c01s04 reporting.
  Task      254 on host i06r08c01s04 reporting.
  Task      255 on host i06r08c01s04 reporting.
  Task      256 on host i06r08c01s04 reporting.
  Task      257 on host i06r08c01s04 reporting.
  Task      258 on host i06r08c01s04 reporting.
  Task      259 on host i06r08c01s04 reporting.
  Task      260 on host i06r08c01s04 reporting.
  Task      261 on host i06r08c01s04 reporting.
  Task      262 on host i06r08c01s04 reporting.
  Task      263 on host i06r08c01s04 reporting.
  Task      264 on host i06r08c01s04 reporting.
  Task      265 on host i06r08c01s04 reporting.
  Task      266 on host i06r08c01s04 reporting.
  Task      267 on host i06r08c01s04 reporting.
  Task      268 on host i06r08c01s04 reporting.
  Task      269 on host i06r08c01s04 reporting.
  Task      270 on host i06r08c01s04 reporting.
  Task      271 on host i06r08c01s04 reporting.
  Task      272 on host i06r08c01s04 reporting.
  Task      273 on host i06r08c01s04 reporting.
  Task      274 on host i06r08c01s04 reporting.
  Task      275 on host i06r08c01s04 reporting.
  Task      276 on host i06r08c01s04 reporting.
  Task      277 on host i06r08c01s04 reporting.
  Task      278 on host i06r08c01s04 reporting.
  Task      279 on host i06r08c01s04 reporting.
  Task      280 on host i06r08c01s04 reporting.
  Task      281 on host i06r08c01s04 reporting.
  Task      282 on host i06r08c01s04 reporting.
  Task      283 on host i06r08c01s04 reporting.
  Task      284 on host i06r08c01s04 reporting.
  Task      285 on host i06r08c01s04 reporting.
  Task      286 on host i06r08c01s04 reporting.
  Task      287 on host i06r08c01s04 reporting.
  Task      288 on host i06r08c01s05 reporting.
  Task      289 on host i06r08c01s05 reporting.
  Task      290 on host i06r08c01s05 reporting.
  Task      291 on host i06r08c01s05 reporting.
  Task      292 on host i06r08c01s05 reporting.
  Task      293 on host i06r08c01s05 reporting.
  Task      294 on host i06r08c01s05 reporting.
  Task      295 on host i06r08c01s05 reporting.
  Task      296 on host i06r08c01s05 reporting.
  Task      297 on host i06r08c01s05 reporting.
  Task      298 on host i06r08c01s05 reporting.
  Task      299 on host i06r08c01s05 reporting.
  Task      300 on host i06r08c01s05 reporting.
  Task      301 on host i06r08c01s05 reporting.
  Task      302 on host i06r08c01s05 reporting.
  Task      303 on host i06r08c01s05 reporting.
  Task      304 on host i06r08c01s05 reporting.
  Task      305 on host i06r08c01s05 reporting.
  Task      306 on host i06r08c01s05 reporting.
  Task      307 on host i06r08c01s05 reporting.
  Task      308 on host i06r08c01s05 reporting.
  Task      309 on host i06r08c01s05 reporting.
  Task      310 on host i06r08c01s05 reporting.
  Task      311 on host i06r08c01s05 reporting.
  Task      312 on host i06r08c01s05 reporting.
  Task      313 on host i06r08c01s05 reporting.
  Task      314 on host i06r08c01s05 reporting.
  Task      315 on host i06r08c01s05 reporting.
  Task      316 on host i06r08c01s05 reporting.
  Task      317 on host i06r08c01s05 reporting.
  Task      318 on host i06r08c01s05 reporting.
  Task      319 on host i06r08c01s05 reporting.
  Task      320 on host i06r08c01s05 reporting.
  Task      321 on host i06r08c01s05 reporting.
  Task      322 on host i06r08c01s05 reporting.
  Task      323 on host i06r08c01s05 reporting.
  Task      324 on host i06r08c01s05 reporting.
  Task      325 on host i06r08c01s05 reporting.
  Task      326 on host i06r08c01s05 reporting.
  Task      327 on host i06r08c01s05 reporting.
  Task      328 on host i06r08c01s05 reporting.
  Task      329 on host i06r08c01s05 reporting.
  Task      330 on host i06r08c01s05 reporting.
  Task      331 on host i06r08c01s05 reporting.
  Task      332 on host i06r08c01s05 reporting.
  Task      333 on host i06r08c01s05 reporting.
  Task      334 on host i06r08c01s05 reporting.
  Task      335 on host i06r08c01s05 reporting.
  Task      336 on host i06r08c01s06 reporting.
  Task      337 on host i06r08c01s06 reporting.
  Task      338 on host i06r08c01s06 reporting.
  Task      339 on host i06r08c01s06 reporting.
  Task      340 on host i06r08c01s06 reporting.
  Task      341 on host i06r08c01s06 reporting.
  Task      342 on host i06r08c01s06 reporting.
  Task      343 on host i06r08c01s06 reporting.
  Task      344 on host i06r08c01s06 reporting.
  Task      345 on host i06r08c01s06 reporting.
  Task      346 on host i06r08c01s06 reporting.
  Task      347 on host i06r08c01s06 reporting.
  Task      348 on host i06r08c01s06 reporting.
  Task      349 on host i06r08c01s06 reporting.
  Task      350 on host i06r08c01s06 reporting.
  Task      351 on host i06r08c01s06 reporting.
  Task      352 on host i06r08c01s06 reporting.
  Task      353 on host i06r08c01s06 reporting.
  Task      354 on host i06r08c01s06 reporting.
  Task      355 on host i06r08c01s06 reporting.
  Task      356 on host i06r08c01s06 reporting.
  Task      357 on host i06r08c01s06 reporting.
  Task      358 on host i06r08c01s06 reporting.
  Task      359 on host i06r08c01s06 reporting.
  Task      360 on host i06r08c01s06 reporting.
  Task      361 on host i06r08c01s06 reporting.
  Task      362 on host i06r08c01s06 reporting.
  Task      363 on host i06r08c01s06 reporting.
  Task      364 on host i06r08c01s06 reporting.
  Task      365 on host i06r08c01s06 reporting.
  Task      366 on host i06r08c01s06 reporting.
  Task      367 on host i06r08c01s06 reporting.
  Task      368 on host i06r08c01s06 reporting.
  Task      369 on host i06r08c01s06 reporting.
  Task      370 on host i06r08c01s06 reporting.
  Task      371 on host i06r08c01s06 reporting.
  Task      372 on host i06r08c01s06 reporting.
  Task      373 on host i06r08c01s06 reporting.
  Task      374 on host i06r08c01s06 reporting.
  Task      375 on host i06r08c01s06 reporting.
  Task      376 on host i06r08c01s06 reporting.
  Task      377 on host i06r08c01s06 reporting.
  Task      378 on host i06r08c01s06 reporting.
  Task      379 on host i06r08c01s06 reporting.
  Task      380 on host i06r08c01s06 reporting.
  Task      381 on host i06r08c01s06 reporting.
  Task      382 on host i06r08c01s06 reporting.
  Task      383 on host i06r08c01s06 reporting.
  Task      384 on host i06r08c01s07 reporting.
  Task      385 on host i06r08c01s07 reporting.
  Task      386 on host i06r08c01s07 reporting.
  Task      387 on host i06r08c01s07 reporting.
  Task      388 on host i06r08c01s07 reporting.
  Task      389 on host i06r08c01s07 reporting.
  Task      390 on host i06r08c01s07 reporting.
  Task      391 on host i06r08c01s07 reporting.
  Task      392 on host i06r08c01s07 reporting.
  Task      393 on host i06r08c01s07 reporting.
  Task      394 on host i06r08c01s07 reporting.
  Task      395 on host i06r08c01s07 reporting.
  Task      396 on host i06r08c01s07 reporting.
  Task      397 on host i06r08c01s07 reporting.
  Task      398 on host i06r08c01s07 reporting.
  Task      399 on host i06r08c01s07 reporting.
  Task      400 on host i06r08c01s07 reporting.
  Task      401 on host i06r08c01s07 reporting.
  Task      402 on host i06r08c01s07 reporting.
  Task      403 on host i06r08c01s07 reporting.
  Task      404 on host i06r08c01s07 reporting.
  Task      405 on host i06r08c01s07 reporting.
  Task      406 on host i06r08c01s07 reporting.
  Task      407 on host i06r08c01s07 reporting.
  Task      408 on host i06r08c01s07 reporting.
  Task      409 on host i06r08c01s07 reporting.
  Task      410 on host i06r08c01s07 reporting.
  Task      411 on host i06r08c01s07 reporting.
  Task      412 on host i06r08c01s07 reporting.
  Task      413 on host i06r08c01s07 reporting.
  Task      414 on host i06r08c01s07 reporting.
  Task      415 on host i06r08c01s07 reporting.
  Task      416 on host i06r08c01s07 reporting.
  Task      417 on host i06r08c01s07 reporting.
  Task      418 on host i06r08c01s07 reporting.
  Task      419 on host i06r08c01s07 reporting.
  Task      420 on host i06r08c01s07 reporting.
  Task      421 on host i06r08c01s07 reporting.
  Task      422 on host i06r08c01s07 reporting.
  Task      423 on host i06r08c01s07 reporting.
  Task      424 on host i06r08c01s07 reporting.
  Task      425 on host i06r08c01s07 reporting.
  Task      426 on host i06r08c01s07 reporting.
  Task      427 on host i06r08c01s07 reporting.
  Task      428 on host i06r08c01s07 reporting.
  Task      429 on host i06r08c01s07 reporting.
  Task      430 on host i06r08c01s07 reporting.
  Task      431 on host i06r08c01s07 reporting.
  Task      432 on host i06r08c01s09 reporting.
  Task      433 on host i06r08c01s09 reporting.
  Task      434 on host i06r08c01s09 reporting.
  Task      435 on host i06r08c01s09 reporting.
  Task      436 on host i06r08c01s09 reporting.
  Task      437 on host i06r08c01s09 reporting.
  Task      438 on host i06r08c01s09 reporting.
  Task      439 on host i06r08c01s09 reporting.
  Task      440 on host i06r08c01s09 reporting.
  Task      441 on host i06r08c01s09 reporting.
  Task      442 on host i06r08c01s09 reporting.
  Task      443 on host i06r08c01s09 reporting.
  Task      444 on host i06r08c01s09 reporting.
  Task      445 on host i06r08c01s09 reporting.
  Task      446 on host i06r08c01s09 reporting.
  Task      447 on host i06r08c01s09 reporting.
  Task      448 on host i06r08c01s09 reporting.
  Task      449 on host i06r08c01s09 reporting.
  Task      450 on host i06r08c01s09 reporting.
  Task      451 on host i06r08c01s09 reporting.
  Task      452 on host i06r08c01s09 reporting.
  Task      453 on host i06r08c01s09 reporting.
  Task      454 on host i06r08c01s09 reporting.
  Task      455 on host i06r08c01s09 reporting.
  Task      456 on host i06r08c01s09 reporting.
  Task      457 on host i06r08c01s09 reporting.
  Task      458 on host i06r08c01s09 reporting.
  Task      459 on host i06r08c01s09 reporting.
  Task      460 on host i06r08c01s09 reporting.
  Task      461 on host i06r08c01s09 reporting.
  Task      462 on host i06r08c01s09 reporting.
  Task      463 on host i06r08c01s09 reporting.
  Task      464 on host i06r08c01s09 reporting.
  Task      465 on host i06r08c01s09 reporting.
  Task      466 on host i06r08c01s09 reporting.
  Task      467 on host i06r08c01s09 reporting.
  Task      468 on host i06r08c01s09 reporting.
  Task      469 on host i06r08c01s09 reporting.
  Task      470 on host i06r08c01s09 reporting.
  Task      471 on host i06r08c01s09 reporting.
  Task      472 on host i06r08c01s09 reporting.
  Task      473 on host i06r08c01s09 reporting.
  Task      474 on host i06r08c01s09 reporting.
  Task      475 on host i06r08c01s09 reporting.
  Task      476 on host i06r08c01s09 reporting.
  Task      477 on host i06r08c01s09 reporting.
  Task      478 on host i06r08c01s09 reporting.
  Task      479 on host i06r08c01s09 reporting.
  Task      480 on host i06r08c01s10 reporting.
  Task      481 on host i06r08c01s10 reporting.
  Task      482 on host i06r08c01s10 reporting.
  Task      483 on host i06r08c01s10 reporting.
  Task      484 on host i06r08c01s10 reporting.
  Task      485 on host i06r08c01s10 reporting.
  Task      486 on host i06r08c01s10 reporting.
  Task      487 on host i06r08c01s10 reporting.
  Task      488 on host i06r08c01s10 reporting.
  Task      489 on host i06r08c01s10 reporting.
  Task      490 on host i06r08c01s10 reporting.
  Task      491 on host i06r08c01s10 reporting.
  Task      492 on host i06r08c01s10 reporting.
  Task      493 on host i06r08c01s10 reporting.
  Task      494 on host i06r08c01s10 reporting.
  Task      495 on host i06r08c01s10 reporting.
  Task      496 on host i06r08c01s10 reporting.
  Task      497 on host i06r08c01s10 reporting.
  Task      498 on host i06r08c01s10 reporting.
  Task      499 on host i06r08c01s10 reporting.
  Task      500 on host i06r08c01s10 reporting.
  Task      501 on host i06r08c01s10 reporting.
  Task      502 on host i06r08c01s10 reporting.
  Task      503 on host i06r08c01s10 reporting.
  Task      504 on host i06r08c01s10 reporting.
  Task      505 on host i06r08c01s10 reporting.
  Task      506 on host i06r08c01s10 reporting.
  Task      507 on host i06r08c01s10 reporting.
  Task      508 on host i06r08c01s10 reporting.
  Task      509 on host i06r08c01s10 reporting.
  Task      510 on host i06r08c01s10 reporting.
  Task      511 on host i06r08c01s10 reporting.
  Task      512 on host i06r08c01s10 reporting.
  Task      513 on host i06r08c01s10 reporting.
  Task      514 on host i06r08c01s10 reporting.
  Task      515 on host i06r08c01s10 reporting.
  Task      516 on host i06r08c01s10 reporting.
  Task      517 on host i06r08c01s10 reporting.
  Task      518 on host i06r08c01s10 reporting.
  Task      519 on host i06r08c01s10 reporting.
  Task      520 on host i06r08c01s10 reporting.
  Task      521 on host i06r08c01s10 reporting.
  Task      522 on host i06r08c01s10 reporting.
  Task      523 on host i06r08c01s10 reporting.
  Task      524 on host i06r08c01s10 reporting.
  Task      525 on host i06r08c01s10 reporting.
  Task      526 on host i06r08c01s10 reporting.
  Task      527 on host i06r08c01s10 reporting.
  Task      528 on host i06r08c01s11 reporting.
  Task      529 on host i06r08c01s11 reporting.
  Task      530 on host i06r08c01s11 reporting.
  Task      531 on host i06r08c01s11 reporting.
  Task      532 on host i06r08c01s11 reporting.
  Task      533 on host i06r08c01s11 reporting.
  Task      534 on host i06r08c01s11 reporting.
  Task      535 on host i06r08c01s11 reporting.
  Task      536 on host i06r08c01s11 reporting.
  Task      537 on host i06r08c01s11 reporting.
  Task      538 on host i06r08c01s11 reporting.
  Task      539 on host i06r08c01s11 reporting.
  Task      540 on host i06r08c01s11 reporting.
  Task      541 on host i06r08c01s11 reporting.
  Task      542 on host i06r08c01s11 reporting.
  Task      543 on host i06r08c01s11 reporting.
  Task      544 on host i06r08c01s11 reporting.
  Task      545 on host i06r08c01s11 reporting.
  Task      546 on host i06r08c01s11 reporting.
  Task      547 on host i06r08c01s11 reporting.
  Task      548 on host i06r08c01s11 reporting.
  Task      549 on host i06r08c01s11 reporting.
  Task      550 on host i06r08c01s11 reporting.
  Task      551 on host i06r08c01s11 reporting.
  Task      552 on host i06r08c01s11 reporting.
  Task      553 on host i06r08c01s11 reporting.
  Task      554 on host i06r08c01s11 reporting.
  Task      555 on host i06r08c01s11 reporting.
  Task      556 on host i06r08c01s11 reporting.
  Task      557 on host i06r08c01s11 reporting.
  Task      558 on host i06r08c01s11 reporting.
  Task      559 on host i06r08c01s11 reporting.
  Task      560 on host i06r08c01s11 reporting.
  Task      561 on host i06r08c01s11 reporting.
  Task      562 on host i06r08c01s11 reporting.
  Task      563 on host i06r08c01s11 reporting.
  Task      564 on host i06r08c01s11 reporting.
  Task      565 on host i06r08c01s11 reporting.
  Task      566 on host i06r08c01s11 reporting.
  Task      567 on host i06r08c01s11 reporting.
  Task      568 on host i06r08c01s11 reporting.
  Task      569 on host i06r08c01s11 reporting.
  Task      570 on host i06r08c01s11 reporting.
  Task      571 on host i06r08c01s11 reporting.
  Task      572 on host i06r08c01s11 reporting.
  Task      573 on host i06r08c01s11 reporting.
  Task      574 on host i06r08c01s11 reporting.
  Task      575 on host i06r08c01s11 reporting.
  Task      576 on host i06r08c01s12 reporting.
  Task      577 on host i06r08c01s12 reporting.
  Task      578 on host i06r08c01s12 reporting.
  Task      579 on host i06r08c01s12 reporting.
  Task      580 on host i06r08c01s12 reporting.
  Task      581 on host i06r08c01s12 reporting.
  Task      582 on host i06r08c01s12 reporting.
  Task      583 on host i06r08c01s12 reporting.
  Task      584 on host i06r08c01s12 reporting.
  Task      585 on host i06r08c01s12 reporting.
  Task      586 on host i06r08c01s12 reporting.
  Task      587 on host i06r08c01s12 reporting.
  Task      588 on host i06r08c01s12 reporting.
  Task      589 on host i06r08c01s12 reporting.
  Task      590 on host i06r08c01s12 reporting.
  Task      591 on host i06r08c01s12 reporting.
  Task      592 on host i06r08c01s12 reporting.
  Task      593 on host i06r08c01s12 reporting.
  Task      594 on host i06r08c01s12 reporting.
  Task      595 on host i06r08c01s12 reporting.
  Task      596 on host i06r08c01s12 reporting.
  Task      597 on host i06r08c01s12 reporting.
  Task      598 on host i06r08c01s12 reporting.
  Task      599 on host i06r08c01s12 reporting.
  Task      600 on host i06r08c01s12 reporting.
  Task      601 on host i06r08c01s12 reporting.
  Task      602 on host i06r08c01s12 reporting.
  Task      603 on host i06r08c01s12 reporting.
  Task      604 on host i06r08c01s12 reporting.
  Task      605 on host i06r08c01s12 reporting.
  Task      606 on host i06r08c01s12 reporting.
  Task      607 on host i06r08c01s12 reporting.
  Task      608 on host i06r08c01s12 reporting.
  Task      609 on host i06r08c01s12 reporting.
  Task      610 on host i06r08c01s12 reporting.
  Task      611 on host i06r08c01s12 reporting.
  Task      612 on host i06r08c01s12 reporting.
  Task      613 on host i06r08c01s12 reporting.
  Task      614 on host i06r08c01s12 reporting.
  Task      615 on host i06r08c01s12 reporting.
  Task      616 on host i06r08c01s12 reporting.
  Task      617 on host i06r08c01s12 reporting.
  Task      618 on host i06r08c01s12 reporting.
  Task      619 on host i06r08c01s12 reporting.
  Task      620 on host i06r08c01s12 reporting.
  Task      621 on host i06r08c01s12 reporting.
  Task      622 on host i06r08c01s12 reporting.
  Task      623 on host i06r08c01s12 reporting.
  Task      624 on host i06r08c02s01 reporting.
  Task      625 on host i06r08c02s01 reporting.
  Task      626 on host i06r08c02s01 reporting.
  Task      627 on host i06r08c02s01 reporting.
  Task      628 on host i06r08c02s01 reporting.
  Task      629 on host i06r08c02s01 reporting.
  Task      630 on host i06r08c02s01 reporting.
  Task      631 on host i06r08c02s01 reporting.
  Task      632 on host i06r08c02s01 reporting.
  Task      633 on host i06r08c02s01 reporting.
  Task      634 on host i06r08c02s01 reporting.
  Task      635 on host i06r08c02s01 reporting.
  Task      636 on host i06r08c02s01 reporting.
  Task      637 on host i06r08c02s01 reporting.
  Task      638 on host i06r08c02s01 reporting.
  Task      639 on host i06r08c02s01 reporting.
  Task      640 on host i06r08c02s01 reporting.
  Task      641 on host i06r08c02s01 reporting.
  Task      642 on host i06r08c02s01 reporting.
  Task      643 on host i06r08c02s01 reporting.
  Task      644 on host i06r08c02s01 reporting.
  Task      645 on host i06r08c02s01 reporting.
  Task      646 on host i06r08c02s01 reporting.
  Task      647 on host i06r08c02s01 reporting.
  Task      648 on host i06r08c02s01 reporting.
  Task      649 on host i06r08c02s01 reporting.
  Task      650 on host i06r08c02s01 reporting.
  Task      651 on host i06r08c02s01 reporting.
  Task      652 on host i06r08c02s01 reporting.
  Task      653 on host i06r08c02s01 reporting.
  Task      654 on host i06r08c02s01 reporting.
  Task      655 on host i06r08c02s01 reporting.
  Task      656 on host i06r08c02s01 reporting.
  Task      657 on host i06r08c02s01 reporting.
  Task      658 on host i06r08c02s01 reporting.
  Task      659 on host i06r08c02s01 reporting.
  Task      660 on host i06r08c02s01 reporting.
  Task      661 on host i06r08c02s01 reporting.
  Task      662 on host i06r08c02s01 reporting.
  Task      663 on host i06r08c02s01 reporting.
  Task      664 on host i06r08c02s01 reporting.
  Task      665 on host i06r08c02s01 reporting.
  Task      666 on host i06r08c02s01 reporting.
  Task      667 on host i06r08c02s01 reporting.
  Task      668 on host i06r08c02s01 reporting.
  Task      669 on host i06r08c02s01 reporting.
  Task      670 on host i06r08c02s01 reporting.
  Task      671 on host i06r08c02s01 reporting.
  Task      672 on host i06r08c02s02 reporting.
  Task      673 on host i06r08c02s02 reporting.
  Task      674 on host i06r08c02s02 reporting.
  Task      675 on host i06r08c02s02 reporting.
  Task      676 on host i06r08c02s02 reporting.
  Task      677 on host i06r08c02s02 reporting.
  Task      678 on host i06r08c02s02 reporting.
  Task      679 on host i06r08c02s02 reporting.
  Task      680 on host i06r08c02s02 reporting.
  Task      681 on host i06r08c02s02 reporting.
  Task      682 on host i06r08c02s02 reporting.
  Task      683 on host i06r08c02s02 reporting.
  Task      684 on host i06r08c02s02 reporting.
  Task      685 on host i06r08c02s02 reporting.
  Task      686 on host i06r08c02s02 reporting.
  Task      687 on host i06r08c02s02 reporting.
  Task      688 on host i06r08c02s02 reporting.
  Task      689 on host i06r08c02s02 reporting.
  Task      690 on host i06r08c02s02 reporting.
  Task      691 on host i06r08c02s02 reporting.
  Task      692 on host i06r08c02s02 reporting.
  Task      693 on host i06r08c02s02 reporting.
  Task      694 on host i06r08c02s02 reporting.
  Task      695 on host i06r08c02s02 reporting.
  Task      696 on host i06r08c02s02 reporting.
  Task      697 on host i06r08c02s02 reporting.
  Task      698 on host i06r08c02s02 reporting.
  Task      699 on host i06r08c02s02 reporting.
  Task      700 on host i06r08c02s02 reporting.
  Task      701 on host i06r08c02s02 reporting.
  Task      702 on host i06r08c02s02 reporting.
  Task      703 on host i06r08c02s02 reporting.
  Task      704 on host i06r08c02s02 reporting.
  Task      705 on host i06r08c02s02 reporting.
  Task      706 on host i06r08c02s02 reporting.
  Task      707 on host i06r08c02s02 reporting.
  Task      708 on host i06r08c02s02 reporting.
  Task      709 on host i06r08c02s02 reporting.
  Task      710 on host i06r08c02s02 reporting.
  Task      711 on host i06r08c02s02 reporting.
  Task      712 on host i06r08c02s02 reporting.
  Task      713 on host i06r08c02s02 reporting.
  Task      714 on host i06r08c02s02 reporting.
  Task      715 on host i06r08c02s02 reporting.
  Task      716 on host i06r08c02s02 reporting.
  Task      717 on host i06r08c02s02 reporting.
  Task      718 on host i06r08c02s02 reporting.
  Task      719 on host i06r08c02s02 reporting.
  Task      720 on host i06r08c02s03 reporting.
  Task      721 on host i06r08c02s03 reporting.
  Task      722 on host i06r08c02s03 reporting.
  Task      723 on host i06r08c02s03 reporting.
  Task      724 on host i06r08c02s03 reporting.
  Task      725 on host i06r08c02s03 reporting.
  Task      726 on host i06r08c02s03 reporting.
  Task      727 on host i06r08c02s03 reporting.
  Task      728 on host i06r08c02s03 reporting.
  Task      729 on host i06r08c02s03 reporting.
  Task      730 on host i06r08c02s03 reporting.
  Task      731 on host i06r08c02s03 reporting.
  Task      732 on host i06r08c02s03 reporting.
  Task      733 on host i06r08c02s03 reporting.
  Task      734 on host i06r08c02s03 reporting.
  Task      735 on host i06r08c02s03 reporting.
  Task      736 on host i06r08c02s03 reporting.
  Task      737 on host i06r08c02s03 reporting.
  Task      738 on host i06r08c02s03 reporting.
  Task      739 on host i06r08c02s03 reporting.
  Task      740 on host i06r08c02s03 reporting.
  Task      741 on host i06r08c02s03 reporting.
  Task      742 on host i06r08c02s03 reporting.
  Task      743 on host i06r08c02s03 reporting.
  Task      744 on host i06r08c02s03 reporting.
  Task      745 on host i06r08c02s03 reporting.
  Task      746 on host i06r08c02s03 reporting.
  Task      747 on host i06r08c02s03 reporting.
  Task      748 on host i06r08c02s03 reporting.
  Task      749 on host i06r08c02s03 reporting.
  Task      750 on host i06r08c02s03 reporting.
  Task      751 on host i06r08c02s03 reporting.
  Task      752 on host i06r08c02s03 reporting.
  Task      753 on host i06r08c02s03 reporting.
  Task      754 on host i06r08c02s03 reporting.
  Task      755 on host i06r08c02s03 reporting.
  Task      756 on host i06r08c02s03 reporting.
  Task      757 on host i06r08c02s03 reporting.
  Task      758 on host i06r08c02s03 reporting.
  Task      759 on host i06r08c02s03 reporting.
  Task      760 on host i06r08c02s03 reporting.
  Task      761 on host i06r08c02s03 reporting.
  Task      762 on host i06r08c02s03 reporting.
  Task      763 on host i06r08c02s03 reporting.
  Task      764 on host i06r08c02s03 reporting.
  Task      765 on host i06r08c02s03 reporting.
  Task      766 on host i06r08c02s03 reporting.
  Task      767 on host i06r08c02s03 reporting.
  Task      768 on host i06r08c02s04 reporting.
  Task      769 on host i06r08c02s04 reporting.
  Task      770 on host i06r08c02s04 reporting.
  Task      771 on host i06r08c02s04 reporting.
  Task      772 on host i06r08c02s04 reporting.
  Task      773 on host i06r08c02s04 reporting.
  Task      774 on host i06r08c02s04 reporting.
  Task      775 on host i06r08c02s04 reporting.
  Task      776 on host i06r08c02s04 reporting.
  Task      777 on host i06r08c02s04 reporting.
  Task      778 on host i06r08c02s04 reporting.
  Task      779 on host i06r08c02s04 reporting.
  Task      780 on host i06r08c02s04 reporting.
  Task      781 on host i06r08c02s04 reporting.
  Task      782 on host i06r08c02s04 reporting.
  Task      783 on host i06r08c02s04 reporting.
  Task      784 on host i06r08c02s04 reporting.
  Task      785 on host i06r08c02s04 reporting.
  Task      786 on host i06r08c02s04 reporting.
  Task      787 on host i06r08c02s04 reporting.
  Task      788 on host i06r08c02s04 reporting.
  Task      789 on host i06r08c02s04 reporting.
  Task      790 on host i06r08c02s04 reporting.
  Task      791 on host i06r08c02s04 reporting.
  Task      792 on host i06r08c02s04 reporting.
  Task      793 on host i06r08c02s04 reporting.
  Task      794 on host i06r08c02s04 reporting.
  Task      795 on host i06r08c02s04 reporting.
  Task      796 on host i06r08c02s04 reporting.
  Task      797 on host i06r08c02s04 reporting.
  Task      798 on host i06r08c02s04 reporting.
  Task      799 on host i06r08c02s04 reporting.
  Task      800 on host i06r08c02s04 reporting.
  Task      801 on host i06r08c02s04 reporting.
  Task      802 on host i06r08c02s04 reporting.
  Task      803 on host i06r08c02s04 reporting.
  Task      804 on host i06r08c02s04 reporting.
  Task      805 on host i06r08c02s04 reporting.
  Task      806 on host i06r08c02s04 reporting.
  Task      807 on host i06r08c02s04 reporting.
  Task      808 on host i06r08c02s04 reporting.
  Task      809 on host i06r08c02s04 reporting.
  Task      810 on host i06r08c02s04 reporting.
  Task      811 on host i06r08c02s04 reporting.
  Task      812 on host i06r08c02s04 reporting.
  Task      813 on host i06r08c02s04 reporting.
  Task      814 on host i06r08c02s04 reporting.
  Task      815 on host i06r08c02s04 reporting.

  Performing system and environment tests:
  | Environment variable OMP_NUM_THREADS correctly set to 1.
  | Checking for ScaLAPACK...
  | Testing pdtran()...
  | All pdtran() tests passed.

  Obtaining array dimensions for all initial allocations:
  
  -----------------------------------------------------------------------
  Parsing control.in (first pass over file, find array dimensions only).
  The contents of control.in will be repeated verbatim below
  unless switched off by setting 'verbatim_writeout .false.' .
  in the first line of control.in .
  -----------------------------------------------------------------------
  
  # jobfile for the first run of 6T on au_rec. The light t1 settings are chosen together with the TS scheffler correction
  xc pbe
  spin none
  
  # Tkatchenko-Scheffler vdW correction
  vdw_correction_hirshfeld
  
  sc_iter_limit 500
  
  output hirshfeld
  output mulliken
  
  relax_geometry bfgs 1.e-2
  
  #relax_geometry trm 1E-2 #relax only geometry and not cell vectors
  
  use_local_index .true.
  load_balancing .true.
  distributed_spline_storage .false.
  
  ################################################################################
  #
  #  FHI-aims code project
  #  Volker Blum, Fritz Haber Institute Berlin, 2009
  #
  #  Suggested "tight" defaults for Au atom (to be pasted into control.in file)
  #
  #  Feb. 16, 2013: Commented out the "h" basis function from tier 1 in the default.
  #                 Au is the only element to have this, and it usually does not
  #                 make a difference. With the advent of hybrid functionals, the
  #                 extra effort is critical.
  #
  ################################################################################
    species        Au
  #     global species definitions
      nucleus             79
      mass                196.966569
  #
      l_hartree           6
  #
      cut_pot             4.0  2.0  1.0
      basis_dep_cutoff    1e-4
  #
      radial_base         73 7.0
      radial_multiplier   2
      angular_grids specified
        division   0.3416   50
        division   0.7206  110
        division   1.1171  194
        division   1.2821  302
        division   1.5560  434
  #      division   2.1046  590
  #      division   2.2363  770
  #      division   2.2710  974
  #      division   2.8078 1202
  #      outer_grid 1202
        outer_grid  434
   ################################################################################
  #
  #  Definition of "minimal" basis
  #
  ################################################################################
  #     valence basis states
      valence      6  s   1.
      valence      5  p   6.
      valence      5  d  10.
      valence      4  f  14.
  #     ion occupancy
      ion_occ     6  s   0.
      ion_occ     5  p   6.
      ion_occ     5  d   9.
      ion_occ     4  f   14.
  ################################################################################
  #
  #  Suggested additional basis functions. For production calculations,
  #  uncomment them one after another (the most important basis functions are
  #  listed first).
  #
  #  Constructed for dimers: 2.10, 2.45, 3.00, 4.00 AA
  #
  ################################################################################
  #  "First tier" - max. impr. -161.60  meV, min. impr. -4.53 meV
       ionic 6 p auto
       hydro 4 f 7.4
       ionic 6 s auto
       hydro 5 g 10
  #     hydro 6 h 12.8
       hydro 3 d 2.5
  #  "Second tier" - max. impr. -2.46  meV, min. impr. -0.28 meV
  #     hydro 5 f 14.8
  #     hydro 4 d 3.9
  #     hydro 3 p 3.3
  #     hydro 1 s 0.45
  #     hydro 5 g 16.4
  #     hydro 6 h 13.6
  #  "Third tier" - max. impr. -0.49  meV, min. impr. -0.09 meV
  #     hydro 4 f 5.2
  #     hydro 4 d 5
  #     hydro 5 g 8
  #     hydro 5 p 8.2
  #     hydro 6 d 12.4
  #     hydro 6 s 14.8
  #  Further basis functions: -0.08 meV and below
  #     hydro 5 f 18.8
  #     hydro 5 g 20
  #    hydro 5 g 15.2
  
  ################################################################################
  #
  #  FHI-aims code project
  # Volker Blum, Fritz Haber Institute Berlin, 2009
  #
  #  Suggested "tight" defaults for H atom (to be pasted into control.in file)
  #
  ################################################################################
    species        H
  #     global species definitions
      nucleus             1
      mass                1.00794
  #
      l_hartree           6
  #
      cut_pot             4.0  2.0  1.0
      basis_dep_cutoff    1e-4
  #
      radial_base         24 7.0
      radial_multiplier   2
      angular_grids       specified
        division   0.1930   50
        division   0.3175  110
        division   0.4293  194
        division   0.5066  302
        division   0.5626  434
  #      division   0.5922  590
  #      division   0.6227  974
  #      division   0.6868 1202
  #      outer_grid  770
        outer_grid  434
  ################################################################################
  #
  #  Definition of "minimal" basis
  #
  ################################################################################
  #     valence basis states
      valence      1  s   1.
  #     ion occupancy
      ion_occ      1  s   0.5
  ################################################################################
  #
  #  Suggested additional basis functions. For production calculations,
  #  uncomment them one after another (the most important basis functions are
  #  listed first).
  #
  #  Basis constructed for dimers: 0.5 A, 0.7 A, 1.0 A, 1.5 A, 2.5 A
  #
  ################################################################################
  #  "First tier" - improvements: -1014.90 meV to -62.69 meV
       hydro 2 s 2.1
       hydro 2 p 3.5
  #  "Second tier" - improvements: -12.89 meV to -1.83 meV
       hydro 1 s 0.85
       hydro 2 p 3.7
       hydro 2 s 1.2
       hydro 3 d 7
  #  "Third tier" - improvements: -0.25 meV to -0.12 meV
  #     hydro 4 f 11.2
  #     hydro 3 p 4.8
  #     hydro 4 d 9
  #     hydro 3 s 3.2
  ################################################################################
  #
  # For methods that use the localized form of the "resolution of identity" for
  # the two-electron Coulomb operator (RI_method LVL), particularly Hartree-Fock and
  # hybrid density functional calculations, the highest accuracy can be obtained by
  # uncommenting the line beginning with "for_aux"  below, thus adding an extra g radial
  # function to the construction of the product basis set for the expansion.
  # See Ref. New J. Phys. 17, 093020 (2015) for more information, particularly Figs. 1 and 6.
  #
  ################################################################################
  #
  # for_aux hydro 5 g 6.0
  #
  
  ################################################################################
  #
  #  FHI-aims code project
  # Volker Blum, Fritz Haber Institute Berlin, 2009
  #
  #  Suggested "tight" defaults for C atom (to be pasted into control.in file)
  #
  ################################################################################
    species        C
  #     global species definitions
      nucleus             6
      mass                12.0107
  #
      l_hartree           6
  #
      cut_pot             4.0  2.0  1.0
      basis_dep_cutoff    1e-4
  #
      radial_base         34 7.0
      radial_multiplier   2
      angular_grids specified
        division   0.2187   50
        division   0.4416  110
        division   0.6335  194
        division   0.7727  302
        division   0.8772  434
  #      division   0.9334  590
  #      division   0.9924  770
  #      division   1.0230  974
  #      division   1.5020 1202
  #     outer_grid  974
        outer_grid  434
  ################################################################################
  #
  #  Definition of "minimal" basis
  #
  ################################################################################
  #     valence basis states
      valence      2  s   2.
      valence      2  p   2.
  #     ion occupancy
      ion_occ      2  s   1.
      ion_occ      2  p   1.
  ################################################################################
  #
  #  Suggested additional basis functions. For production calculations,
  #  uncomment them one after another (the most important basis functions are
  #  listed first).
  #
  #  Constructed for dimers: 1.0 A, 1.25 A, 1.5 A, 2.0 A, 3.0 A
  #
  ################################################################################
  #  "First tier" - improvements: -1214.57 meV to -155.61 meV
       hydro 2 p 1.7
       hydro 3 d 6
       hydro 2 s 4.9
  #  "Second tier" - improvements: -67.75 meV to -5.23 meV
       hydro 4 f 9.8
       hydro 3 p 5.2
       hydro 3 s 4.3
       hydro 5 g 14.4
       hydro 3 d 6.2
  #  "Third tier" - improvements: -2.43 meV to -0.60 meV
  #     hydro 2 p 5.6
  #     hydro 2 s 1.4
  #     hydro 3 d 4.9
  #     hydro 4 f 11.2
  #  "Fourth tier" - improvements: -0.39 meV to -0.18 meV
  #     hydro 2 p 2.1
  #     hydro 5 g 16.4
  #     hydro 4 d 13.2
  #     hydro 3 s 13.6
  #     hydro 4 f 17.6
  #  Further basis functions - improvements: -0.08 meV and below
  #     hydro 3 s 2
  #     hydro 3 p 6
  #     hydro 4 d 20
  ################################################################################
  #
  # For methods that use the localized form of the "resolution of identity" for
  # the two-electron Coulomb operator (RI_method LVL), particularly Hartree-Fock and
  # hybrid density functional calculations, the highest accuracy can be obtained by
  # uncommenting the line beginning with "for_aux"  below, thus adding an extra g radial
  # function to the construction of the product basis set for the expansion.
  # See Ref. New J. Phys. 17, 093020 (2015) for more information, particularly Figs. 1 and 6.
  #
  ################################################################################
  #
  # for_aux hydro 5 g 6.0
  
  ################################################################################
  #
  #  FHI-aims code project
  # Volker Blum, Fritz Haber Institute Berlin, 2009
  #
  #  Suggested "tight" defaults for S atom (to be pasted into control.in file)
  #
  #  Revised Jan 04, 2011, following tests (SiC) done by Lydia Nemec:
  #     d and g functions of tier 2 now enabled by default.
  #
  ################################################################################
    species        S
  #     global species definitions
      nucleus             16
      mass                32.065
  #
      l_hartree           6
  #
      cut_pot             4.0          2.0  1.0
      basis_dep_cutoff    1e-4
  #
      radial_base         44 7.0
      radial_multiplier   2
      angular_grids       specified
        division   0.4665  110
        division   0.5810  194
        division   0.7139  302
        division   0.8274  434
  #      division   0.9105  590
  #      division   1.0975  770
  #      division   1.2028  974
  #      outer_grid  974
        outer_grid  434
  ################################################################################
  #
  #  Definition of "minimal" basis
  #
  ################################################################################
  #     valence basis states
      valence      3  s   2.
      valence      3  p   4.
  #     ion occupancy
      ion_occ      3  s   1.
      ion_occ      3  p   3.
  ################################################################################
  #
  #  Suggested additional basis functions. For production calculations,
  #  uncomment them one after another (the most important basis functions are
  #  listed first).
  #
  #  Constructed for dimers: 1.6 A, 1.9 A, 2.5 A, 3.25 A, 4.0 A
  #
  ################################################################################
  #  "First tier" - improvements: -652.81 meV to -45.53 meV
       ionic 3 d auto
       hydro 2 p 1.8
       hydro 4 f 7
       ionic 3 s auto
  #  "Second tier" - improvements: -30.20 meV to -1.74 meV
       hydro 4 d 6.2
       hydro 5 g 10.8
  #     hydro 4 p 4.9
  #     hydro 5 f 10
  #     hydro 1 s 0.8
  #  "Third tier" - improvements: -1.04 meV to -0.20 meV
  #     hydro 3 d 3.9
  #     hydro 3 d 2.7
  #     hydro 5 g 12
  #     hydro 4 p 10.4
  #     hydro 5 f 12.4
  #     hydro 2 s 1.9
  #  "Fourth tier" - improvements: -0.35 meV to -0.06 meV
  #     hydro 4 d 10.4
  #     hydro 4 p 7.2
  #     hydro 4 d 10
  #     hydro 5 g 19.2
  #     hydro 4 s 12
  
  ################################################################################
  #
  # For methods that use the localized form of the "resolution of identity" for
  # the two-electron Coulomb operator (RI_method LVL), particularly Hartree-Fock and
  # hybrid density functional calculations, the highest accuracy can be obtained by
  # uncommenting the line beginning with "for_aux"  below, thus adding an extra g radial
  # function to the construction of the product basis set for the expansion.
  # See Ref. New J. Phys. 17, 093020 (2015) for more information, particularly Figs. 1 and 6.
  #
  ################################################################################
  #
  # for_aux hydro 5 g 6.0
  
  ################################################################################
  #
  #  FHI-aims code project
  # Volker Blum, Fritz Haber Institute Berlin, 2009
  #
  #  Suggested "tight" defaults for O atom (to be pasted into control.in file)
  #
  ################################################################################
    species        O
  #     global species definitions
      nucleus             8
      mass                15.9994
  #
      l_hartree           6
  #
      cut_pot             4.0  2.0  1.0
      basis_dep_cutoff    1e-4
  #
      radial_base         36 7.0
      radial_multiplier   2
       angular_grids specified
        division   0.1817   50
        division   0.3417  110
        division   0.4949  194
        division   0.6251  302
        division   0.8014  434
  #      division   0.8507  590
  #      division   0.8762  770
  #      division   0.9023  974
  #      division   1.2339 1202
  #      outer_grid 974
        outer_grid  434
  ################################################################################
  #
  #  Definition of "minimal" basis
  #
  ################################################################################
  #     valence basis states
      valence      2  s   2.
      valence      2  p   4.
  #     ion occupancy
      ion_occ      2  s   1.
      ion_occ      2  p   3.
  ################################################################################
  #
  #  Suggested additional basis functions. For production calculations,
  #  uncomment them one after another (the most important basis functions are
  #  listed first).
  #
  #  Constructed for dimers: 1.0 A, 1.208 A, 1.5 A, 2.0 A, 3.0 A
  #
  ################################################################################
  #  "First tier" - improvements: -699.05 meV to -159.38 meV
       hydro 2 p 1.8
       hydro 3 d 7.6
       hydro 3 s 6.4
  #  "Second tier" - improvements: -49.91 meV to -5.39 meV
       hydro 4 f 11.6
       hydro 3 p 6.2
       hydro 3 d 5.6
       hydro 5 g 17.6
       hydro 1 s 0.75
  #  "Third tier" - improvements: -2.83 meV to -0.50 meV
  #     ionic 2 p auto
  #     hydro 4 f 10.8
  #     hydro 4 d 4.7
  #     hydro 2 s 6.8
  #  "Fourth tier" - improvements: -0.40 meV to -0.12 meV
  #     hydro 3 p 5
  #     hydro 3 s 3.3
  #     hydro 5 g 15.6
  #     hydro 4 f 17.6
  #     hydro 4 d 14
  # Further basis functions - -0.08 meV and below
  #     hydro 3 s 2.1
  #     hydro 4 d 11.6
  #     hydro 3 p 16
  #     hydro 2 s 17.2
  ################################################################################
  #
  # For methods that use the localized form of the "resolution of identity" for
  # the two-electron Coulomb operator (RI_method LVL), particularly Hartree-Fock and
  # hybrid density functional calculations, the highest accuracy can be obtained by
  # uncommenting the line beginning with "for_aux"  below, thus adding an extra g radial
  # function to the construction of the product basis set for the expansion.
  # See Ref. New J. Phys. 17, 093020 (2015) for more information, particularly Figs. 1 and 6.
  #
  ################################################################################
  #
  # for_aux hydro 5 g 6.0
  
  -----------------------------------------------------------------------
  Completed first pass over input file control.in .
  -----------------------------------------------------------------------
  
  
  -----------------------------------------------------------------------
  Parsing geometry.in (first pass over file, find array dimensions only).
  The contents of geometry.in will be repeated verbatim below
  unless switched off by setting 'verbatim_writeout .false.' .
  in the first line of geometry.in .
  -----------------------------------------------------------------------
  
  atom 17.34425 23.95571 23.81962 H
  constrain_relaxation .true.
  atom 16.53695 23.23868 23.67060 C
    constrain_relaxation .true.
  atom 17.67373 22.04316 22.26811 H
  constrain_relaxation .true.
  atom -1.74553 28.60509 22.47089 H
  constrain_relaxation .true.
  atom 16.72448 22.17254 22.78748 C
  constrain_relaxation .true.
  atom -1.07558 28.01685 23.09762 C
  constrain_relaxation .true.
  atom 1.09212 28.92771 21.53918 S
  constrain_relaxation .true.
  atom -2.62954 27.34993 24.42743 H
  constrain_relaxation .true.
  atom 15.20447 24.22198 25.05791 H
  constrain_relaxation .true.
  atom -1.56356 27.31419 24.20254 C
  constrain_relaxation .true.
  atom 15.34078 23.39248 24.36605 C
  constrain_relaxation .true.
  atom 0.29606 27.96824 22.81460 C
  constrain_relaxation .true.
  atom -0.71214 26.57685 25.02343 C
  constrain_relaxation .true.
  atom 1.15874 27.22530 23.62325 C
  constrain_relaxation .true.
  atom 0.66907 26.52235 24.74129 C
  constrain_relaxation .true.
  atom -1.10398 26.03611 25.88343 H
  constrain_relaxation .true.
  atom 15.68244 21.25340 22.58566 C
  constrain_relaxation .true.
  atom 15.87098 19.78914 21.58210 S
  constrain_relaxation .true.
  atom 2.22305 27.18975 23.39718 H
  constrain_relaxation .true.
  atom 14.29495 22.46224 24.18686 C
  constrain_relaxation .true.
  atom 1.59886 25.78062 25.51201 C
  constrain_relaxation .true.
  atom 14.47783 21.39848 23.27952 C
  constrain_relaxation .true.
  atom 4.87426 24.90511 24.89590 H
  atom 13.06956 22.54058 24.89492 C
  constrain_relaxation .true.
  atom 2.50302 25.16625 26.05527 C
  constrain_relaxation .true.
  atom 4.78228 24.32721 25.81465 C
  constrain_relaxation .true.
  atom 11.99028 22.49497 25.46343 C
  constrain_relaxation .true.
  atom 3.58704 24.40579 26.55894 C
  atom 6.71938 23.43647 25.60732 H
  atom 5.82020 23.49483 26.21938 C
  atom 13.67164 20.68258 23.12839 H
  constrain_relaxation .true.
  atom 10.52375 24.27543 26.92666 H
  atom 10.71715 22.30302 26.05631 C
  atom 10.04467 23.30768 26.78348 C
  atom 3.50093 23.67135 27.75948 C
  atom 8.77653 23.07281 27.30358 C
  atom 10.08166 21.05456 25.90388 C
  atom 8.27486 23.86334 27.86229 H
  atom 10.59428 20.26164 25.36101 H
  atom 5.70639 22.71882 27.37962 C
  atom 2.59458 23.73527 28.36029 H
  atom 8.12940 21.84108 27.11440 C
  atom 8.81426 20.83156 26.42828 C
  atom 4.54577 22.84679 28.15642 C
  atom 6.72487 21.59759 27.71817 C
  constrain_relaxation .true.
  atom 8.35261 19.85588 26.29053 H
  atom 4.44961 22.26193 29.07123 H
  atom 6.07233 20.31043 27.15072 C
  atom 6.08382 21.05419 25.11727 H
  atom 5.79925 20.23436 25.77569 C
  atom 5.90355 19.28085 29.03378 H
  atom 5.68976 19.24235 27.96582 C
  atom 5.15381 19.13466 25.23308 C
  atom 4.94128 19.09485 24.16546 H
  atom 5.02645 18.13684 27.43353 C
  atom 4.73625 18.06980 26.05941 C
  atom 4.71892 17.31933 28.08440 H
  atom 3.99966 16.99530 25.49568 C
  constrain_relaxation .true.
  atom 3.32555 16.13738 24.95127 C
  constrain_relaxation .true.
  atom 4.02132 14.32680 23.08339 H
  constrain_relaxation .true.
  atom 2.47006 15.19687 24.31948 C
  constrain_relaxation .true.
  atom 2.96344 14.31161 23.34040 C
  constrain_relaxation .true.
  atom 1.09937 15.16315 24.65122 C
  constrain_relaxation .true.
  atom 0.72163 15.84980 25.40698 H
  constrain_relaxation .true.
  atom 2.09582 13.41576 22.70909 C
  constrain_relaxation .true.
  atom 2.72772 12.16990 21.59991 S
  constrain_relaxation .true.
  atom 0.24399 14.27379 24.00754 C
  constrain_relaxation .true.
  atom 0.72943 13.40076 23.03603 C
  constrain_relaxation .true.
  atom -0.81597 14.26047 24.26096 H
  constrain_relaxation .true.
  atom 0.06122 12.70147 22.53509 H
  constrain_relaxation .true.
  atom -0.03570 29.33458 20.91420 H
  constrain_relaxation .true.
  atom 1.51944 11.72180 21.19759 H
  constrain_relaxation .true.
  atom 17.03980 20.14982 21.00745 H
  constrain_relaxation .true.
  atom          6.91528       21.51178       29.17061 C
  constrain_relaxation .true.
  atom          7.11606       21.45627       30.36984 C
  constrain_relaxation .true.
  atom 7.48416055811889 23.269955549156347 36.32202546715356 H
  constrain_relaxation .true.
  atom 7.922220179442492 23.267263782743242 38.76037960395555 H
  constrain_relaxation .true.
  atom 7.882479167879845 22.3744349139592 36.8002404971915 C
  constrain_relaxation .true.
  atom 8.121185099843538 22.371848724306815 38.17179949354142 C
  constrain_relaxation .true.
  atom 8.376494491918901 23.306665620586323 31.855317676101564 H
  constrain_relaxation .true.
  atom 8.806130331435625 23.181904503076357 34.28941924628314 H
  constrain_relaxation .true.
  atom 8.032636304737558 22.447383334544444 32.42930588730715 C
  constrain_relaxation .true.
  atom 8.264897819671573 22.374294958923056 33.795614020610024 C
  constrain_relaxation .true.
  atom 7.358417876092685 21.399778039142028 31.77041475129115 C
  constrain_relaxation .true.
  atom 7.847963474460013 21.269692645753313 34.560148319724895 C
  constrain_relaxation .true.
  atom 8.11389127290072 21.231161271586164 36.01477947383967 C
  constrain_relaxation .true.
  atom 8.603637825631427 21.21547297924953 38.78756793713288 C
  constrain_relaxation .true.
  atom 8.791438893964138 21.198761036338585 39.860975766197505 H
  constrain_relaxation .true.
  atom 6.930614568573111 20.296920600907285 32.532112931613 C
  constrain_relaxation .true.
  atom 7.1598126493629675 20.218523652026484 33.907441404221785 C
  constrain_relaxation .true.
  atom 6.060384938689454 19.38007655594782 35.5469265473934 H
  constrain_relaxation .true.
  atom 6.638043732075368 19.029918118954384 34.672437919379156 C
  constrain_relaxation .true.
  atom 6.394062889129871 19.488941166591623 32.033874040407596 H
  constrain_relaxation .true.
  atom 8.61428164756268 20.064329450224406 36.640245474916675 C
  constrain_relaxation .true.
  atom 8.84635943794782 20.076750874063386 38.02158771083787 C
  constrain_relaxation .true.
  atom 5.969096467318395 18.415825869264246 34.059008900873614 H
  constrain_relaxation .true.
  atom 7.7191326007973915 18.115855913388106 35.24858596604827 C
  constrain_relaxation .true.
  atom 9.23626163766688 19.176011868645595 38.49843250212033 H
  constrain_relaxation .true.
  atom 8.933836741932623 18.823737787558525 35.8467289345181 C
  constrain_relaxation .true.
  atom 9.567130075804647 19.090821222999686 34.981324992427346 H
  constrain_relaxation .true.
  atom 7.617605880690912 16.906495455343112 35.23193865330334 O
  constrain_relaxation .true.
  atom 9.48787811241128 18.09265392211907 36.44641640853455 H
  constrain_relaxation .true.
  
  -----------------------------------------------------------------------
  Completed first pass over input file geometry.in .
  -----------------------------------------------------------------------
  

  Basic array size parameters:
  | Number of species                 :        5
  | Number of atoms                   :      102
  | Max. basis fn. angular momentum   :        4
  | Max. atomic/ionic basis occupied n:        6
  | Max. number of basis fn. types    :        3
  | Max. radial fns per species/type  :       14
  | Max. logarithmic grid size        :     1488
  | Max. radial integration grid size :      147
  | Max. angular integration grid size:      434
  | Max. angular grid division number :        8
  | Radial grid for Hartree potential :     1488
  | Number of spin channels           :        1

------------------------------------------------------------
          Reading file control.in.
------------------------------------------------------------
  XC: Using PBE gradient-corrected functionals.
  Spin treatment: No spin polarisation.
  Maximum number of s.-c. iterations  :   500
  Hirshfeld charge analysis will be performed.
  Full Mulliken charge analysis will be written to file 'Mulliken.out'.
  Geometry relaxation: Modified BFGS - TRM (trust radius method) for lattice optimization.
  Convergence accuracy for geometry relaxation: Maximum force <   0.100000E-01 eV/A.
  Storing only matrices local to each thread.
  Using load balancing for integrations.
  Full copy of Hartree potential on each thread requested explicitly.
 
  Reading configuration options for species Au                  .
  | Found nuclear charge :  79.0000
  | Found atomic mass :    196.966569000000      amu
  | Found l_max for Hartree potential  :   6
  | Found cutoff potl. onset [A], width [A], scale factor :    4.00000    2.00000    1.00000
  | Threshold for basis-dependent cutoff potential is   0.100000E-03
  | Found data for basic radial integration grid :    73 points, outermost radius =    7.000 A
  | Found multiplier for basic radial grid :   2
  | Found angular grid specification: user-specified.
  | Specified grid contains     6 separate shells.
  | Check grid settings after all constraints further below.
  | Found free-atom valence shell :  6 s   1.000
  | Found free-atom valence shell :  5 p   6.000
  | Found free-atom valence shell :  5 d  10.000
  | Found free-atom valence shell :  4 f  14.000
  | Found free-ion valence shell :  6 s   0.000
  | Found free-ion valence shell :  5 p   6.000
  | Found free-ion valence shell :  5 d   9.000
  | Found free-ion valence shell :  4 f  14.000
  | Found ionic basis function :  6 p , default cutoff radius.
  | Found hydrogenic basis function :  4 f   7.400
  | Found ionic basis function :  6 s , default cutoff radius.
  | Found hydrogenic basis function :  5 g  10.000
  | Found hydrogenic basis function :  3 d   2.500
  Species Au                  : Missing cutoff potential type.
  Defaulting to exp(1/x)/(1-x)^2 type cutoff potential.
  Species Au: No 'logarithmic' tag. Using default grid for free atom:
  | Default logarithmic grid data [bohr] : 0.1000E-03 0.1000E+03 0.1012E+01
  | Will include ionic basis functions of  2.0-fold positive Au                   ion.
  Species Au: On-site basis accuracy parameter (for Gram-Schmidt orthonormalisation) not specified.
  Using default value basis_acc =  0.1000000E-03.
  Species Au                  : Using default innermost maximum threshold i_radial=  2 for radial functions.
  Species Au                  : Default cutoff onset for free atom density etc. : 0.40000000E+01 AA.
  Species Au                  : Basic radial grid will be enhanced according to radial_multiplier =   2, to contain   147 grid points.
 
  Reading configuration options for species H                   .
  | Found nuclear charge :   1.0000
  | Found atomic mass :    1.00794000000000      amu
  | Found l_max for Hartree potential  :   6
  | Found cutoff potl. onset [A], width [A], scale factor :    4.00000    2.00000    1.00000
  | Threshold for basis-dependent cutoff potential is   0.100000E-03
  | Found data for basic radial integration grid :    24 points, outermost radius =    7.000 A
  | Found multiplier for basic radial grid :   2
  | Found angular grid specification: user-specified.
  | Specified grid contains     6 separate shells.
  | Check grid settings after all constraints further below.
  | Found free-atom valence shell :  1 s   1.000
  | Found free-ion valence shell :  1 s   0.500
  | Found hydrogenic basis function :  2 s   2.100
  | Found hydrogenic basis function :  2 p   3.500
  | Found hydrogenic basis function :  1 s   0.850
  | Found hydrogenic basis function :  2 p   3.700
  | Found hydrogenic basis function :  2 s   1.200
  | Found hydrogenic basis function :  3 d   7.000
  Species H                   : Missing cutoff potential type.
  Defaulting to exp(1/x)/(1-x)^2 type cutoff potential.
  Species H : No 'logarithmic' tag. Using default grid for free atom:
  | Default logarithmic grid data [bohr] : 0.1000E-03 0.1000E+03 0.1012E+01
  Species H : On-site basis accuracy parameter (for Gram-Schmidt orthonormalisation) not specified.
  Using default value basis_acc =  0.1000000E-03.
  Species H                   : Using default innermost maximum threshold i_radial=  2 for radial functions.
  Species H                   : Default cutoff onset for free atom density etc. : 0.40000000E+01 AA.
  Species H                   : Basic radial grid will be enhanced according to radial_multiplier =   2, to contain    49 grid points.
 
  Reading configuration options for species C                   .
  | Found nuclear charge :   6.0000
  | Found atomic mass :    12.0107000000000      amu
  | Found l_max for Hartree potential  :   6
  | Found cutoff potl. onset [A], width [A], scale factor :    4.00000    2.00000    1.00000
  | Threshold for basis-dependent cutoff potential is   0.100000E-03
  | Found data for basic radial integration grid :    34 points, outermost radius =    7.000 A
  | Found multiplier for basic radial grid :   2
  | Found angular grid specification: user-specified.
  | Specified grid contains     6 separate shells.
  | Check grid settings after all constraints further below.
  | Found free-atom valence shell :  2 s   2.000
  | Found free-atom valence shell :  2 p   2.000
  | Found free-ion valence shell :  2 s   1.000
  | Found free-ion valence shell :  2 p   1.000
  | Found hydrogenic basis function :  2 p   1.700
  | Found hydrogenic basis function :  3 d   6.000
  | Found hydrogenic basis function :  2 s   4.900
  | Found hydrogenic basis function :  4 f   9.800
  | Found hydrogenic basis function :  3 p   5.200
  | Found hydrogenic basis function :  3 s   4.300
  | Found hydrogenic basis function :  5 g  14.400
  | Found hydrogenic basis function :  3 d   6.200
  Species C                   : Missing cutoff potential type.
  Defaulting to exp(1/x)/(1-x)^2 type cutoff potential.
  Species C : No 'logarithmic' tag. Using default grid for free atom:
  | Default logarithmic grid data [bohr] : 0.1000E-03 0.1000E+03 0.1012E+01
  Species C : On-site basis accuracy parameter (for Gram-Schmidt orthonormalisation) not specified.
  Using default value basis_acc =  0.1000000E-03.
  Species C                   : Using default innermost maximum threshold i_radial=  2 for radial functions.
  Species C                   : Default cutoff onset for free atom density etc. : 0.40000000E+01 AA.
  Species C                   : Basic radial grid will be enhanced according to radial_multiplier =   2, to contain    69 grid points.
 
  Reading configuration options for species S                   .
  | Found nuclear charge :  16.0000
  | Found atomic mass :    32.0650000000000      amu
  | Found l_max for Hartree potential  :   6
  | Found cutoff potl. onset [A], width [A], scale factor :    4.00000    2.00000    1.00000
  | Threshold for basis-dependent cutoff potential is   0.100000E-03
  | Found data for basic radial integration grid :    44 points, outermost radius =    7.000 A
  | Found multiplier for basic radial grid :   2
  | Found angular grid specification: user-specified.
  | Specified grid contains     5 separate shells.
  | Check grid settings after all constraints further below.
  | Found free-atom valence shell :  3 s   2.000
  | Found free-atom valence shell :  3 p   4.000
  | Found free-ion valence shell :  3 s   1.000
  | Found free-ion valence shell :  3 p   3.000
  | Found ionic basis function :  3 d , default cutoff radius.
  | Found hydrogenic basis function :  2 p   1.800
  | Found hydrogenic basis function :  4 f   7.000
  | Found ionic basis function :  3 s , default cutoff radius.
  | Found hydrogenic basis function :  4 d   6.200
  | Found hydrogenic basis function :  5 g  10.800
  Species S                   : Missing cutoff potential type.
  Defaulting to exp(1/x)/(1-x)^2 type cutoff potential.
  Species S : No 'logarithmic' tag. Using default grid for free atom:
  | Default logarithmic grid data [bohr] : 0.1000E-03 0.1000E+03 0.1012E+01
  | Will include ionic basis functions of  2.0-fold positive S                    ion.
  Species S : On-site basis accuracy parameter (for Gram-Schmidt orthonormalisation) not specified.
  Using default value basis_acc =  0.1000000E-03.
  Species S                   : Using default innermost maximum threshold i_radial=  2 for radial functions.
  Species S                   : Default cutoff onset for free atom density etc. : 0.40000000E+01 AA.
  Species S                   : Basic radial grid will be enhanced according to radial_multiplier =   2, to contain    89 grid points.
 
  Reading configuration options for species O                   .
  | Found nuclear charge :   8.0000
  | Found atomic mass :    15.9994000000000      amu
  | Found l_max for Hartree potential  :   6
  | Found cutoff potl. onset [A], width [A], scale factor :    4.00000    2.00000    1.00000
  | Threshold for basis-dependent cutoff potential is   0.100000E-03
  | Found data for basic radial integration grid :    36 points, outermost radius =    7.000 A
  | Found multiplier for basic radial grid :   2
  | Found angular grid specification: user-specified.
  | Specified grid contains     6 separate shells.
  | Check grid settings after all constraints further below.
  | Found free-atom valence shell :  2 s   2.000
  | Found free-atom valence shell :  2 p   4.000
  | Found free-ion valence shell :  2 s   1.000
  | Found free-ion valence shell :  2 p   3.000
  | Found hydrogenic basis function :  2 p   1.800
  | Found hydrogenic basis function :  3 d   7.600
  | Found hydrogenic basis function :  3 s   6.400
  | Found hydrogenic basis function :  4 f  11.600
  | Found hydrogenic basis function :  3 p   6.200
  | Found hydrogenic basis function :  3 d   5.600
  | Found hydrogenic basis function :  5 g  17.600
  | Found hydrogenic basis function :  1 s   0.750
  Species O                   : Missing cutoff potential type.
  Defaulting to exp(1/x)/(1-x)^2 type cutoff potential.
  Species O : No 'logarithmic' tag. Using default grid for free atom:
  | Default logarithmic grid data [bohr] : 0.1000E-03 0.1000E+03 0.1012E+01
  Species O : On-site basis accuracy parameter (for Gram-Schmidt orthonormalisation) not specified.
  Using default value basis_acc =  0.1000000E-03.
  Species O                   : Using default innermost maximum threshold i_radial=  2 for radial functions.
  Species O                   : Default cutoff onset for free atom density etc. : 0.40000000E+01 AA.
  Species O                   : Basic radial grid will be enhanced according to radial_multiplier =   2, to contain    73 grid points.
 
  Finished reading input file 'control.in'.
 
------------------------------------------------------------


------------------------------------------------------------
          Reading geometry description geometry.in.
------------------------------------------------------------
  Found relaxation constraint for atom      1: All coordinates fixed.
  Found relaxation constraint for atom      2: All coordinates fixed.
  Found relaxation constraint for atom      3: All coordinates fixed.
  Found relaxation constraint for atom      4: All coordinates fixed.
  Found relaxation constraint for atom      5: All coordinates fixed.
  Found relaxation constraint for atom      6: All coordinates fixed.
  Found relaxation constraint for atom      7: All coordinates fixed.
  Found relaxation constraint for atom      8: All coordinates fixed.
  Found relaxation constraint for atom      9: All coordinates fixed.
  Found relaxation constraint for atom     10: All coordinates fixed.
  Found relaxation constraint for atom     11: All coordinates fixed.
  Found relaxation constraint for atom     12: All coordinates fixed.
  Found relaxation constraint for atom     13: All coordinates fixed.
  Found relaxation constraint for atom     14: All coordinates fixed.
  Found relaxation constraint for atom     15: All coordinates fixed.
  Found relaxation constraint for atom     16: All coordinates fixed.
  Found relaxation constraint for atom     17: All coordinates fixed.
  Found relaxation constraint for atom     18: All coordinates fixed.
  Found relaxation constraint for atom     19: All coordinates fixed.
  Found relaxation constraint for atom     20: All coordinates fixed.
  Found relaxation constraint for atom     21: All coordinates fixed.
  Found relaxation constraint for atom     22: All coordinates fixed.
  Found relaxation constraint for atom     24: All coordinates fixed.
[...]
  |                                 -0.00271756       0.10248187       0.00642612
  |                                  0.00163999       0.00642612       0.09864368
  ----------------------------------------------------------------------
  | Atom    81: H
  |   Hirshfeld charge        :      0.04806758
  |   Free atom volume        :     10.31591070
  |   Hirshfeld volume        :      6.62631658
  |   Hirshfeld dipole vector :      0.04761918       0.07064855       0.03155241
  |   Hirshfeld dipole moment :      0.09085350
  |   Hirshfeld second moments:      0.10558157      -0.00476192      -0.00274253
  |                                 -0.00476192       0.10243320      -0.00641726
  |                                 -0.00274253      -0.00641726       0.09065999
  ----------------------------------------------------------------------
  | Atom    82: C
  |   Hirshfeld charge        :     -0.04014479
  |   Free atom volume        :     38.38815825
  |   Hirshfeld volume        :     31.32821528
  |   Hirshfeld dipole vector :      0.00763567       0.01866981      -0.01597363
  |   Hirshfeld dipole moment :      0.02572979
  |   Hirshfeld second moments:      0.20393739      -0.04089872      -0.02545628
  |                                 -0.04089872       0.15211182      -0.00039065
  |                                 -0.02545628      -0.00039065       0.10043451
  ----------------------------------------------------------------------
  | Atom    83: C
  |   Hirshfeld charge        :     -0.04204738
  |   Free atom volume        :     38.38815825
  |   Hirshfeld volume        :     31.45648457
  |   Hirshfeld dipole vector :      0.00982872       0.01801909       0.01135936
  |   Hirshfeld dipole moment :      0.02345904
  |   Hirshfeld second moments:      0.20785400      -0.03902036      -0.01649664
  |                                 -0.03902036       0.14865395       0.01931816
  |                                 -0.01649664       0.01931816       0.09218052
  ----------------------------------------------------------------------
  | Atom    84: C
  |   Hirshfeld charge        :      0.00376185
  |   Free atom volume        :     38.38815825
  |   Hirshfeld volume        :     32.32267004
  |   Hirshfeld dipole vector :     -0.00298405       0.00142465      -0.02420628
  |   Hirshfeld dipole moment :      0.02443109
  |   Hirshfeld second moments:      0.19830779      -0.05241098      -0.02116366
  |                                 -0.05241098       0.12441240       0.01041219
  |                                 -0.02116366       0.01041219       0.09094981
  ----------------------------------------------------------------------
  | Atom    85: C
  |   Hirshfeld charge        :     -0.00221378
  |   Free atom volume        :     38.38815825
  |   Hirshfeld volume        :     32.63876236
  |   Hirshfeld dipole vector :      0.00325519      -0.00218602       0.02347430
  |   Hirshfeld dipole moment :      0.02379953
  |   Hirshfeld second moments:      0.20184851      -0.05494500      -0.02325426
  |                                 -0.05494500       0.11463006       0.01308979
  |                                 -0.02325426       0.01308979       0.08609013
  ----------------------------------------------------------------------
  | Atom    86: C
  |   Hirshfeld charge        :     -0.00449857
  |   Free atom volume        :     38.38815825
  |   Hirshfeld volume        :     32.68884801
  |   Hirshfeld dipole vector :     -0.00296412      -0.00115850      -0.02391244
  |   Hirshfeld dipole moment :      0.02412329
  |   Hirshfeld second moments:      0.21517663       0.03801440      -0.02346024
  |                                  0.03801440       0.09753492      -0.00852877
  |                                 -0.02346024      -0.00852877       0.08581053
  ----------------------------------------------------------------------
  | Atom    87: C
  |   Hirshfeld charge        :     -0.04445705
  |   Free atom volume        :     38.38815825
  |   Hirshfeld volume        :     31.19552498
  |   Hirshfeld dipole vector :      0.00499303       0.00055706       0.02944103
  |   Hirshfeld dipole moment :      0.02986662
  |   Hirshfeld second moments:      0.20866631       0.03420512      -0.01331029
  |                                  0.03420512       0.11324223      -0.00550799
  |                                 -0.01331029      -0.00550799       0.13390879
  ----------------------------------------------------------------------
  | Atom    88: H
  |   Hirshfeld charge        :      0.04967220
  |   Free atom volume        :     10.31591070
  |   Hirshfeld volume        :      6.25668160
  |   Hirshfeld dipole vector :      0.01619405      -0.00132708       0.09282630
  |   Hirshfeld dipole moment :      0.09423763
  |   Hirshfeld second moments:      0.10916591      -0.00249147      -0.00241491
  |                                 -0.00249147       0.11641646       0.00065739
  |                                 -0.00241491       0.00065739       0.09595402
  ----------------------------------------------------------------------
  | Atom    89: C
  |   Hirshfeld charge        :     -0.04155759
  |   Free atom volume        :     38.38815825
  |   Hirshfeld volume        :     31.52406103
  |   Hirshfeld dipole vector :     -0.00921364      -0.01409792      -0.01167969
  |   Hirshfeld dipole moment :      0.02049531
  |   Hirshfeld second moments:      0.20837536      -0.04346352      -0.01443802
  |                                 -0.04346352       0.14311229       0.02699615
  |                                 -0.01443802       0.02699615       0.09683561
  ----------------------------------------------------------------------
  | Atom    90: C
  |   Hirshfeld charge        :      0.00534640
  |   Free atom volume        :     38.38815825
  |   Hirshfeld volume        :     32.40194957
  |   Hirshfeld dipole vector :     -0.01075918      -0.02260991       0.01848898
  |   Hirshfeld dipole moment :      0.03112572
  |   Hirshfeld second moments:      0.20221198      -0.05843634      -0.02499024
  |                                 -0.05843634       0.12401694       0.01686465
  |                                 -0.02499024       0.01686465       0.08885881
  ----------------------------------------------------------------------
  | Atom    91: H
  |   Hirshfeld charge        :      0.05793209
  |   Free atom volume        :     10.31591070
  |   Hirshfeld volume        :      6.71415076
  |   Hirshfeld dipole vector :     -0.05887779       0.02241690       0.06638386
  |   Hirshfeld dipole moment :      0.09152010
  |   Hirshfeld second moments:      0.10209355      -0.00079368       0.00371222
  |                                 -0.00079368       0.10059747      -0.00815817
  |                                  0.00371222      -0.00815817       0.09398379
  ----------------------------------------------------------------------
  | Atom    92: C
  |   Hirshfeld charge        :     -0.07537803
  |   Free atom volume        :     38.38815825
  |   Hirshfeld volume        :     31.04320788
  |   Hirshfeld dipole vector :      0.00343721       0.00332875      -0.00589730
  |   Hirshfeld dipole moment :      0.00759428
  |   Hirshfeld second moments:      0.17714572      -0.00746105      -0.01169655
  |                                 -0.00746105       0.13293209       0.01458826
  |                                 -0.01169655       0.01458826       0.16330776
  ----------------------------------------------------------------------
  | Atom    93: H
  |   Hirshfeld charge        :      0.04852485
  |   Free atom volume        :     10.31591070
  |   Hirshfeld volume        :      6.68497991
  |   Hirshfeld dipole vector :     -0.04444908      -0.06808524      -0.04098137
  |   Hirshfeld dipole moment :      0.09105380
  |   Hirshfeld second moments:      0.10646120      -0.00705406      -0.00306795
  |                                 -0.00705406       0.09780283       0.00067946
  |                                 -0.00306795       0.00067946       0.09258785
  ----------------------------------------------------------------------
  | Atom    94: C
  |   Hirshfeld charge        :      0.00441619
  |   Free atom volume        :     38.38815825
  |   Hirshfeld volume        :     32.45662308
  |   Hirshfeld dipole vector :      0.00782819      -0.02404024      -0.01827039
  |   Hirshfeld dipole moment :      0.03119328
  |   Hirshfeld second moments:      0.21773765       0.04266567      -0.02551461
  |                                  0.04266567       0.10678829      -0.01215351
  |                                 -0.02551461      -0.01215351       0.08700042
  ----------------------------------------------------------------------
  | Atom    95: C
  |   Hirshfeld charge        :     -0.04653316
  |   Free atom volume        :     38.38815825
  |   Hirshfeld volume        :     31.38023458
  |   Hirshfeld dipole vector :      0.00950541      -0.02023831       0.01193847
  |   Hirshfeld dipole moment :      0.02534698
  |   Hirshfeld second moments:      0.21404218       0.02980672      -0.01316832
  |                                  0.02980672       0.12537534      -0.02479628
  |                                 -0.01316832      -0.02479628       0.10923684
  ----------------------------------------------------------------------
  | Atom    96: H
  |   Hirshfeld charge        :      0.05045658
  |   Free atom volume        :     10.31591070
  |   Hirshfeld volume        :      6.75679193
  |   Hirshfeld dipole vector :     -0.06039040      -0.04458946      -0.04802883
  |   Hirshfeld dipole moment :      0.08911784
  |   Hirshfeld second moments:      0.10501295      -0.00387551      -0.00929454
  |                                 -0.00387551       0.08628245       0.00296631
  |                                 -0.00929454       0.00296631       0.10021324
  ----------------------------------------------------------------------
  | Atom    97: C
  |   Hirshfeld charge        :      0.15824285
  |   Free atom volume        :     38.38815825
  |   Hirshfeld volume        :     31.89134411
  |   Hirshfeld dipole vector :      0.00157045       0.01960544       0.00020437
  |   Hirshfeld dipole moment :      0.01966930
  |   Hirshfeld second moments:      0.15825406      -0.00654342      -0.08844761
  |                                 -0.00654342       0.06837902       0.00443926
  |                                 -0.08844761       0.00443926       0.27829179
  ----------------------------------------------------------------------
  | Atom    98: H
  |   Hirshfeld charge        :      0.04795460
  |   Free atom volume        :     10.31591070
  |   Hirshfeld volume        :      6.44921264
  |   Hirshfeld dipole vector :      0.03275012      -0.07375687       0.04530731
  |   Hirshfeld dipole moment :      0.09254944
  |   Hirshfeld second moments:      0.10776327       0.00526797      -0.00141712
  |                                  0.00526797       0.09596530       0.00239910
  |                                 -0.00141712       0.00239910       0.10575959
  ----------------------------------------------------------------------
  | Atom    99: C
  |   Hirshfeld charge        :     -0.07584107
  |   Free atom volume        :     38.38815825
  |   Hirshfeld volume        :     31.04993866
  |   Hirshfeld dipole vector :     -0.00262181       0.00363368       0.00597587
  |   Hirshfeld dipole moment :      0.00746918
  |   Hirshfeld second moments:      0.17839378       0.00042279      -0.01367307
  |                                  0.00042279       0.13194402      -0.01345439
  |                                 -0.01367307      -0.01345439       0.16242303
  ----------------------------------------------------------------------
  | Atom   100: H
  |   Hirshfeld charge        :      0.05787498
  |   Free atom volume        :     10.31591070
  |   Hirshfeld volume        :      6.70369898
  |   Hirshfeld dipole vector :      0.06224785       0.01387541      -0.06583120
  |   Hirshfeld dipole moment :      0.09165735
  |   Hirshfeld second moments:      0.10237951       0.00031548       0.00518521
  |                                  0.00031548       0.10016286       0.00731304
  |                                  0.00518521       0.00731304       0.09469919
  ----------------------------------------------------------------------
  | Atom   101: O
  |   Hirshfeld charge        :     -0.22171288
  |   Free atom volume        :     23.75028826
  |   Hirshfeld volume        :     22.62284239
  |   Hirshfeld dipole vector :      0.00482569       0.05504606       0.00067336
  |   Hirshfeld dipole moment :      0.05526128
  |   Hirshfeld second moments:      0.00135057      -0.00186101      -0.03032006
  |                                 -0.00186101      -0.02512502       0.00173873
  |                                 -0.03032006       0.00173873       0.03703844
  ----------------------------------------------------------------------
  | Atom   102: H
  |   Hirshfeld charge        :      0.05045355
  |   Free atom volume        :     10.31591070
  |   Hirshfeld volume        :      6.76095080
  |   Hirshfeld dipole vector :      0.05190526      -0.05504243       0.04701250
  |   Hirshfeld dipole moment :      0.08907301
  |   Hirshfeld second moments:      0.10587017       0.00089894      -0.00963600
  |                                  0.00089894       0.08562215      -0.00169795
  |                                 -0.00963600      -0.00169795       0.09974741
  ----------------------------------------------------------------------


------------------------------------------------------------------------------
  Final output of selected total energy values:

  The following output summarizes some interesting total energy values
  at the end of a run (AFTER all relaxation, molecular dynamics, etc.).

  | Total energy of the DFT / Hartree-Fock s.c.f. calculation      :         -97321.658165066 eV
  | Final zero-broadening corrected energy (caution - metals only) :         -97321.658165066 eV
  | For reference only, the value of 1 Hartree used in FHI-aims is :             27.211384500 eV

  Before relying on these values, please be sure to understand exactly which
  total energy value is referred to by a given number. Different objects may
  all carry the same name 'total energy'. Definitions:

  Total energy of the DFT / Hartree-Fock s.c.f. calculation:
  | Note that this energy does not include ANY quantities calculated after the
  | s.c.f. cycle, in particular not ANY RPA, MP2, etc. many-body perturbation terms.

  Final zero-broadening corrected energy:
  | For metallic systems only, a broadening of the occupation numbers at the Fermi
  | level can be extrapolated back to zero broadening by an electron-gas inspired
  | formula. For all systems that are not real metals, this value can be
  | meaningless and should be avoided.

------------------------------------------------------------------------------
  Methods described in the following list of references were used in this FHI-aims run.
  If you publish the results, please make sure to cite these reference if they apply.
  FHI-aims is an academic code, and for our developers (often, Ph.D. students
  and postdocs), scientific credit in the community is essential.
  Thank you for helping us!

  For any use of FHI-aims, please cite:

    Volker Blum, Ralf Gehrke, Felix Hanke, Paula Havu, Ville Havu,
    Xinguo Ren, Karsten Reuter, and Matthias Scheffler
    'Ab initio molecular simulations with numeric atom-centered orbitals'
    Computer Physics Communications 180, 2175-2196 (2009)
    http://dx.doi.org/10.1016/j.cpc.2009.06.022


  The ELSI infrastructure was used in your run to solve the Kohn-Sham electronic structure.
  Please check out http://elsi-interchange.org to learn more.
  If scalability is important for your project, please acknowledge ELSI by citing:

    V. W-z. Yu, F. Corsetti, A. Garcia, W. P. Huhn, M. Jacquelin, W. Jia,
    B. Lange, L. Lin, J. Lu, W. Mi, A. Seifitokaldani, A. Vazquez-Mayagoitia,
    C. Yang, H. Yang, and V. Blum
    'ELSI: A unified software interface for Kohn-Sham electronic structure solvers'
    Computer Physics Communications 222, 267-285 (2018).
    http://dx.doi.org/10.1016/j.cpc.2017.09.007


  For the real-space grid partitioning and parallelization used in this calculation, please cite:

    Ville Havu, Volker Blum, Paula Havu, and Matthias Scheffler,
    'Efficient O(N) integration for all-electron electronic structure calculation'
    'using numerically tabulated basis functions'
    Journal of Computational Physics 228, 8367-8379 (2009).
    http://dx.doi.org/10.1016/j.jcp.2009.08.008

  Of course, there are many other important community references, e.g., those cited in the
  above references. Our list is limited to references that describe implementations in the
  FHI-aims code. The reason is purely practical (length of this list) - please credit others as well.

------------------------------------------------------------
          Leaving FHI-aims.
          Date     :  20240514, Time     :  220612.670

          Computational steps:
          | Number of self-consistency cycles          :           73
          | Number of SCF (re)initializations          :            7
          | Number of relaxation steps                 :            6

          Detailed time accounting                     :  max(cpu_time)    wall_clock(cpu1)
          | Total time                                  :       95.094 s          95.229 s
          | Preparation time                            :        0.657 s           1.042 s
          | Boundary condition initalization            :        0.868 s           0.010 s
          | Grid partitioning                           :        4.140 s           4.139 s
          | Preloading free-atom quantities on grid     :        0.960 s           0.961 s
          | Free-atom superposition energy              :        0.075 s           0.076 s
          | Total time for integrations                 :        9.479 s           9.473 s
          | Total time for solution of K.-S. equations  :       26.815 s          26.456 s
          | Total time for EV reorthonormalization      :        0.568 s           0.567 s
          | Total time for density & force components   :       20.643 s          20.527 s
          | Total time for mixing                       :        0.327 s           0.181 s
          | Total time for Hartree multipole update     :        1.522 s           1.515 s
          | Total time for Hartree multipole sum        :       17.535 s          17.534 s
          | Total time for total energy evaluation      :        0.034 s           0.021 s
          | Total time NSC force correction             :        3.922 s           3.920 s
          | Total time for vdW correction               :        0.574 s           0.576 s
          | Total time for Mulliken analysis            :        0.121 s           0.121 s

          Partial memory accounting:
          | Residual value for overall tracked memory usage across tasks:     0.000000 MB (should be 0.000000 MB)
          | Peak values for overall tracked memory usage:
          |   Minimum:       31.495 MB (on task 815 after allocating hessian_basis_wave)
          |   Maximum:       34.212 MB (on task 619 after allocating hessian_basis_wave)
          |   Average:       32.346 MB
          | Largest tracked array allocation:
          |   Minimum:       11.134 MB (KS_eigenvector on task   0)
          |   Maximum:       11.134 MB (KS_eigenvector on task   0)
          |   Average:       11.134 MB
          Note:  These values currently only include a subset of arrays which are explicitly tracked.
          The "true" memory usage will be greater.

          Have a nice day.
------------------------------------------------------------
