------------------------------------------------------------
          Invoking FHI-aims ...

          When using FHI-aims, please cite the following reference:

            Volker Blum, Ralf Gehrke, Felix Hanke, Paula Havu,
            Ville Havu, Xinguo Ren, Karsten Reuter, and Matthias Scheffler,
            'Ab Initio Molecular Simulations with Numeric Atom-Centered Orbitals',
            Computer Physics Communications 180, 2175-2196 (2009)

          In addition, many other developments in FHI-aims are likely important for
          your particular application. A partial list of references is given at the end of
          this file. Thank you for giving credit to the authors of these developments.

          For any questions about FHI-aims, please visit our slack channel at

            https://fhi-aims.slack.com

          and our main development and support site at

            https://aims-git.rz-berlin.mpg.de .

          The latter site, in particular, has a wiki to collect information, as well
          as an issue tracker to log discussions, suggest improvements, and report issues
          or bugs. https://aims-git.rz-berlin.mpg.de is also the main development site
          of the project and all new and updated code versions can be obtained there.
          Please send an email to aims-coordinators@fhi-berlin.mpg.de and we will add
          you to these sites. They are for you and everyone is welcome there.

------------------------------------------------------------



  Date     :  20240514, Time     :  223643.784
  Time zero on CPU 1             :   0.150971400000000E+01  s.
  Internal wall clock time zero  :           484958203.784  s.

  FHI-aims created a unique identifier for this run for later identification
  aims_uuid : 8C0CFC78-C7B3-4E02-AE74-52703EC868D0

  Build configuration of the current instance of FHI-aims
  -------------------------------------------------------
  FHI-aims version      : 210807
  Commit number         : c21600046
  CMake host system     : Linux-4.12.14-197.78-default
  CMake version         : 3.16.5
  Fortran compiler      : /dss/dsshome1/lrz/sys/spack/release/21.1.1/opt/x86_64/intel-mpi/2019.8.254-gcc-vyzek4m/compilers_and_libraries_2020.2.254/linux/mpi/intel64/bin/mpiifort (Intel) version 19.0.5.20190815
  Fortran compiler flags: -O3 -ip -fp-model precise
  C compiler            : /dss/dsshome1/lrz/sys/spack/release/21.1.1/opt/x86_64/intel/19.0.5-gcc-uglchea/bin/icc (Intel) version 19.0.5.20190815
  C compiler flags      : -O3 -ip -fp-model precise -std=gnu99
  ELPA2 kernel          : AVX512
  Using MPI
  Using ScaLAPACK
  Using LibXC
  Using i-PI
  Using RLSY
  Linking against: /dss/dsshome1/lrz/sys/spack/release/21.1.1/opt/x86_64/intel-mkl/2019.5.281-gcc-2gmjfxz/mkl/lib/intel64_lin/libmkl_intel_lp64.so
                   /dss/dsshome1/lrz/sys/spack/release/21.1.1/opt/x86_64/intel-mkl/2019.5.281-gcc-2gmjfxz/mkl/lib/intel64_lin/libmkl_sequential.so
                   /dss/dsshome1/lrz/sys/spack/release/21.1.1/opt/x86_64/intel-mkl/2019.5.281-gcc-2gmjfxz/mkl/lib/intel64_lin/libmkl_core.so
                   /dss/dsshome1/lrz/sys/spack/release/21.1.1/opt/x86_64/intel-mkl/2019.5.281-gcc-2gmjfxz/mkl/lib/intel64_lin/libmkl_scalapack_lp64.so
                   /dss/dsshome1/lrz/sys/spack/release/21.1.1/opt/x86_64/intel-mkl/2019.5.281-gcc-2gmjfxz/mkl/lib/intel64_lin/libmkl_blacs_intelmpi_lp64.so

  Using      192 parallel tasks.
  Task        0 on host i05r11c05s09 reporting.
  Task        1 on host i05r11c05s09 reporting.
  Task        2 on host i05r11c05s09 reporting.
  Task        3 on host i05r11c05s09 reporting.
  Task        4 on host i05r11c05s09 reporting.
  Task        5 on host i05r11c05s09 reporting.
  Task        6 on host i05r11c05s09 reporting.
  Task        7 on host i05r11c05s09 reporting.
  Task        8 on host i05r11c05s09 reporting.
  Task        9 on host i05r11c05s09 reporting.
  Task       10 on host i05r11c05s09 reporting.
  Task       11 on host i05r11c05s09 reporting.
  Task       12 on host i05r11c05s09 reporting.
  Task       13 on host i05r11c05s09 reporting.
  Task       14 on host i05r11c05s09 reporting.
  Task       15 on host i05r11c05s09 reporting.
  Task       16 on host i05r11c05s09 reporting.
  Task       17 on host i05r11c05s09 reporting.
  Task       18 on host i05r11c05s09 reporting.
  Task       19 on host i05r11c05s09 reporting.
  Task       20 on host i05r11c05s09 reporting.
  Task       21 on host i05r11c05s09 reporting.
  Task       22 on host i05r11c05s09 reporting.
  Task       23 on host i05r11c05s09 reporting.
  Task       24 on host i05r11c05s09 reporting.
  Task       25 on host i05r11c05s09 reporting.
  Task       26 on host i05r11c05s09 reporting.
  Task       27 on host i05r11c05s09 reporting.
  Task       28 on host i05r11c05s09 reporting.
  Task       29 on host i05r11c05s09 reporting.
  Task       30 on host i05r11c05s09 reporting.
  Task       31 on host i05r11c05s09 reporting.
  Task       32 on host i05r11c05s09 reporting.
  Task       33 on host i05r11c05s09 reporting.
  Task       34 on host i05r11c05s09 reporting.
  Task       35 on host i05r11c05s09 reporting.
  Task       36 on host i05r11c05s09 reporting.
  Task       37 on host i05r11c05s09 reporting.
  Task       38 on host i05r11c05s09 reporting.
  Task       39 on host i05r11c05s09 reporting.
  Task       40 on host i05r11c05s09 reporting.
  Task       41 on host i05r11c05s09 reporting.
  Task       42 on host i05r11c05s09 reporting.
  Task       43 on host i05r11c05s09 reporting.
  Task       44 on host i05r11c05s09 reporting.
  Task       45 on host i05r11c05s09 reporting.
  Task       46 on host i05r11c05s09 reporting.
  Task       47 on host i05r11c05s09 reporting.
  Task       48 on host i05r11c05s10 reporting.
  Task       49 on host i05r11c05s10 reporting.
  Task       50 on host i05r11c05s10 reporting.
  Task       51 on host i05r11c05s10 reporting.
  Task       52 on host i05r11c05s10 reporting.
  Task       53 on host i05r11c05s10 reporting.
  Task       54 on host i05r11c05s10 reporting.
  Task       55 on host i05r11c05s10 reporting.
  Task       56 on host i05r11c05s10 reporting.
  Task       57 on host i05r11c05s10 reporting.
  Task       58 on host i05r11c05s10 reporting.
  Task       59 on host i05r11c05s10 reporting.
  Task       60 on host i05r11c05s10 reporting.
  Task       61 on host i05r11c05s10 reporting.
  Task       62 on host i05r11c05s10 reporting.
  Task       63 on host i05r11c05s10 reporting.
  Task       64 on host i05r11c05s10 reporting.
  Task       65 on host i05r11c05s10 reporting.
  Task       66 on host i05r11c05s10 reporting.
  Task       67 on host i05r11c05s10 reporting.
  Task       68 on host i05r11c05s10 reporting.
  Task       69 on host i05r11c05s10 reporting.
  Task       70 on host i05r11c05s10 reporting.
  Task       71 on host i05r11c05s10 reporting.
  Task       72 on host i05r11c05s10 reporting.
  Task       73 on host i05r11c05s10 reporting.
  Task       74 on host i05r11c05s10 reporting.
  Task       75 on host i05r11c05s10 reporting.
  Task       76 on host i05r11c05s10 reporting.
  Task       77 on host i05r11c05s10 reporting.
  Task       78 on host i05r11c05s10 reporting.
  Task       79 on host i05r11c05s10 reporting.
  Task       80 on host i05r11c05s10 reporting.
  Task       81 on host i05r11c05s10 reporting.
  Task       82 on host i05r11c05s10 reporting.
  Task       83 on host i05r11c05s10 reporting.
  Task       84 on host i05r11c05s10 reporting.
  Task       85 on host i05r11c05s10 reporting.
  Task       86 on host i05r11c05s10 reporting.
  Task       87 on host i05r11c05s10 reporting.
  Task       88 on host i05r11c05s10 reporting.
  Task       89 on host i05r11c05s10 reporting.
  Task       90 on host i05r11c05s10 reporting.
  Task       91 on host i05r11c05s10 reporting.
  Task       92 on host i05r11c05s10 reporting.
  Task       93 on host i05r11c05s10 reporting.
  Task       94 on host i05r11c05s10 reporting.
  Task       95 on host i05r11c05s10 reporting.
  Task       96 on host i05r11c05s11 reporting.
  Task       97 on host i05r11c05s11 reporting.
  Task       98 on host i05r11c05s11 reporting.
  Task       99 on host i05r11c05s11 reporting.
  Task      100 on host i05r11c05s11 reporting.
  Task      101 on host i05r11c05s11 reporting.
  Task      102 on host i05r11c05s11 reporting.
  Task      103 on host i05r11c05s11 reporting.
  Task      104 on host i05r11c05s11 reporting.
  Task      105 on host i05r11c05s11 reporting.
  Task      106 on host i05r11c05s11 reporting.
  Task      107 on host i05r11c05s11 reporting.
  Task      108 on host i05r11c05s11 reporting.
  Task      109 on host i05r11c05s11 reporting.
  Task      110 on host i05r11c05s11 reporting.
  Task      111 on host i05r11c05s11 reporting.
  Task      112 on host i05r11c05s11 reporting.
  Task      113 on host i05r11c05s11 reporting.
  Task      114 on host i05r11c05s11 reporting.
  Task      115 on host i05r11c05s11 reporting.
  Task      116 on host i05r11c05s11 reporting.
  Task      117 on host i05r11c05s11 reporting.
  Task      118 on host i05r11c05s11 reporting.
  Task      119 on host i05r11c05s11 reporting.
  Task      120 on host i05r11c05s11 reporting.
  Task      121 on host i05r11c05s11 reporting.
  Task      122 on host i05r11c05s11 reporting.
  Task      123 on host i05r11c05s11 reporting.
  Task      124 on host i05r11c05s11 reporting.
  Task      125 on host i05r11c05s11 reporting.
  Task      126 on host i05r11c05s11 reporting.
  Task      127 on host i05r11c05s11 reporting.
  Task      128 on host i05r11c05s11 reporting.
  Task      129 on host i05r11c05s11 reporting.
  Task      130 on host i05r11c05s11 reporting.
  Task      131 on host i05r11c05s11 reporting.
  Task      132 on host i05r11c05s11 reporting.
  Task      133 on host i05r11c05s11 reporting.
  Task      134 on host i05r11c05s11 reporting.
  Task      135 on host i05r11c05s11 reporting.
  Task      136 on host i05r11c05s11 reporting.
  Task      137 on host i05r11c05s11 reporting.
  Task      138 on host i05r11c05s11 reporting.
  Task      139 on host i05r11c05s11 reporting.
  Task      140 on host i05r11c05s11 reporting.
  Task      141 on host i05r11c05s11 reporting.
  Task      142 on host i05r11c05s11 reporting.
  Task      143 on host i05r11c05s11 reporting.
  Task      144 on host i05r11c05s12 reporting.
  Task      145 on host i05r11c05s12 reporting.
  Task      146 on host i05r11c05s12 reporting.
  Task      147 on host i05r11c05s12 reporting.
  Task      148 on host i05r11c05s12 reporting.
  Task      149 on host i05r11c05s12 reporting.
  Task      150 on host i05r11c05s12 reporting.
  Task      151 on host i05r11c05s12 reporting.
  Task      152 on host i05r11c05s12 reporting.
  Task      153 on host i05r11c05s12 reporting.
  Task      154 on host i05r11c05s12 reporting.
  Task      155 on host i05r11c05s12 reporting.
  Task      156 on host i05r11c05s12 reporting.
  Task      157 on host i05r11c05s12 reporting.
  Task      158 on host i05r11c05s12 reporting.
  Task      159 on host i05r11c05s12 reporting.
  Task      160 on host i05r11c05s12 reporting.
  Task      161 on host i05r11c05s12 reporting.
  Task      162 on host i05r11c05s12 reporting.
  Task      163 on host i05r11c05s12 reporting.
  Task      164 on host i05r11c05s12 reporting.
  Task      165 on host i05r11c05s12 reporting.
  Task      166 on host i05r11c05s12 reporting.
  Task      167 on host i05r11c05s12 reporting.
  Task      168 on host i05r11c05s12 reporting.
  Task      169 on host i05r11c05s12 reporting.
  Task      170 on host i05r11c05s12 reporting.
  Task      171 on host i05r11c05s12 reporting.
  Task      172 on host i05r11c05s12 reporting.
  Task      173 on host i05r11c05s12 reporting.
  Task      174 on host i05r11c05s12 reporting.
  Task      175 on host i05r11c05s12 reporting.
  Task      176 on host i05r11c05s12 reporting.
  Task      177 on host i05r11c05s12 reporting.
  Task      178 on host i05r11c05s12 reporting.
  Task      179 on host i05r11c05s12 reporting.
  Task      180 on host i05r11c05s12 reporting.
  Task      181 on host i05r11c05s12 reporting.
  Task      182 on host i05r11c05s12 reporting.
  Task      183 on host i05r11c05s12 reporting.
  Task      184 on host i05r11c05s12 reporting.
  Task      185 on host i05r11c05s12 reporting.
  Task      186 on host i05r11c05s12 reporting.
  Task      187 on host i05r11c05s12 reporting.
  Task      188 on host i05r11c05s12 reporting.
  Task      189 on host i05r11c05s12 reporting.
  Task      190 on host i05r11c05s12 reporting.
  Task      191 on host i05r11c05s12 reporting.

  Performing system and environment tests:
  | Environment variable OMP_NUM_THREADS correctly set to 1.
  | Checking for ScaLAPACK...
  | Testing pdtran()...
  | All pdtran() tests passed.

  Obtaining array dimensions for all initial allocations:
  
  -----------------------------------------------------------------------
  Parsing control.in (first pass over file, find array dimensions only).
  The contents of control.in will be repeated verbatim below
  unless switched off by setting 'verbatim_writeout .false.' .
  in the first line of control.in .
  -----------------------------------------------------------------------
  
  # jobfile for the first run of 6T on au_rec. The light t1 settings are chosen together with the TS scheffler correction
  xc pbe
  spin none
  
  # Tkatchenko-Scheffler vdW correction
  vdw_correction_hirshfeld
  
  sc_iter_limit 500
  
  output hirshfeld
  output mulliken
  
  relax_geometry bfgs 1.e-2
  
  #relax_geometry trm 1E-2 #relax only geometry and not cell vectors
  
  use_local_index .true.
  load_balancing .true.
  distributed_spline_storage .false.
  
  ################################################################################
  #
  #  FHI-aims code project
  #  Volker Blum, Fritz Haber Institute Berlin, 2009
  #
  #  Suggested "tight" defaults for Au atom (to be pasted into control.in file)
  #
  #  Feb. 16, 2013: Commented out the "h" basis function from tier 1 in the default.
  #                 Au is the only element to have this, and it usually does not
  #                 make a difference. With the advent of hybrid functionals, the
  #                 extra effort is critical.
  #
  ################################################################################
    species        Au
  #     global species definitions
      nucleus             79
      mass                196.966569
  #
      l_hartree           6
  #
      cut_pot             4.0  2.0  1.0
      basis_dep_cutoff    1e-4
  #
      radial_base         73 7.0
      radial_multiplier   2
      angular_grids specified
        division   0.3416   50
        division   0.7206  110
        division   1.1171  194
        division   1.2821  302
        division   1.5560  434
  #      division   2.1046  590
  #      division   2.2363  770
  #      division   2.2710  974
  #      division   2.8078 1202
  #      outer_grid 1202
        outer_grid  434
   ################################################################################
  #
  #  Definition of "minimal" basis
  #
  ################################################################################
  #     valence basis states
      valence      6  s   1.
      valence      5  p   6.
      valence      5  d  10.
      valence      4  f  14.
  #     ion occupancy
      ion_occ     6  s   0.
      ion_occ     5  p   6.
      ion_occ     5  d   9.
      ion_occ     4  f   14.
  ################################################################################
  #
  #  Suggested additional basis functions. For production calculations,
  #  uncomment them one after another (the most important basis functions are
  #  listed first).
  #
  #  Constructed for dimers: 2.10, 2.45, 3.00, 4.00 AA
  #
  ################################################################################
  #  "First tier" - max. impr. -161.60  meV, min. impr. -4.53 meV
       ionic 6 p auto
       hydro 4 f 7.4
       ionic 6 s auto
       hydro 5 g 10
  #     hydro 6 h 12.8
       hydro 3 d 2.5
  #  "Second tier" - max. impr. -2.46  meV, min. impr. -0.28 meV
  #     hydro 5 f 14.8
  #     hydro 4 d 3.9
  #     hydro 3 p 3.3
  #     hydro 1 s 0.45
  #     hydro 5 g 16.4
  #     hydro 6 h 13.6
  #  "Third tier" - max. impr. -0.49  meV, min. impr. -0.09 meV
  #     hydro 4 f 5.2
  #     hydro 4 d 5
  #     hydro 5 g 8
  #     hydro 5 p 8.2
  #     hydro 6 d 12.4
  #     hydro 6 s 14.8
  #  Further basis functions: -0.08 meV and below
  #     hydro 5 f 18.8
  #     hydro 5 g 20
  #    hydro 5 g 15.2
  
  ################################################################################
  #
  #  FHI-aims code project
  # Volker Blum, Fritz Haber Institute Berlin, 2009
  #
  #  Suggested "tight" defaults for H atom (to be pasted into control.in file)
  #
  ################################################################################
    species        H
  #     global species definitions
      nucleus             1
      mass                1.00794
  #
      l_hartree           6
  #
      cut_pot             4.0  2.0  1.0
      basis_dep_cutoff    1e-4
  #
      radial_base         24 7.0
      radial_multiplier   2
      angular_grids       specified
        division   0.1930   50
        division   0.3175  110
        division   0.4293  194
        division   0.5066  302
        division   0.5626  434
  #      division   0.5922  590
  #      division   0.6227  974
  #      division   0.6868 1202
  #      outer_grid  770
        outer_grid  434
  ################################################################################
  #
  #  Definition of "minimal" basis
  #
  ################################################################################
  #     valence basis states
      valence      1  s   1.
  #     ion occupancy
      ion_occ      1  s   0.5
  ################################################################################
  #
  #  Suggested additional basis functions. For production calculations,
  #  uncomment them one after another (the most important basis functions are
  #  listed first).
  #
  #  Basis constructed for dimers: 0.5 A, 0.7 A, 1.0 A, 1.5 A, 2.5 A
  #
  ################################################################################
  #  "First tier" - improvements: -1014.90 meV to -62.69 meV
       hydro 2 s 2.1
       hydro 2 p 3.5
  #  "Second tier" - improvements: -12.89 meV to -1.83 meV
       hydro 1 s 0.85
       hydro 2 p 3.7
       hydro 2 s 1.2
       hydro 3 d 7
  #  "Third tier" - improvements: -0.25 meV to -0.12 meV
  #     hydro 4 f 11.2
  #     hydro 3 p 4.8
  #     hydro 4 d 9
  #     hydro 3 s 3.2
  ################################################################################
  #
  # For methods that use the localized form of the "resolution of identity" for
  # the two-electron Coulomb operator (RI_method LVL), particularly Hartree-Fock and
  # hybrid density functional calculations, the highest accuracy can be obtained by
  # uncommenting the line beginning with "for_aux"  below, thus adding an extra g radial
  # function to the construction of the product basis set for the expansion.
  # See Ref. New J. Phys. 17, 093020 (2015) for more information, particularly Figs. 1 and 6.
  #
  ################################################################################
  #
  # for_aux hydro 5 g 6.0
  #
  
  ################################################################################
  #
  #  FHI-aims code project
  # Volker Blum, Fritz Haber Institute Berlin, 2009
  #
  #  Suggested "tight" defaults for C atom (to be pasted into control.in file)
  #
  ################################################################################
    species        C
  #     global species definitions
      nucleus             6
      mass                12.0107
  #
      l_hartree           6
  #
      cut_pot             4.0  2.0  1.0
      basis_dep_cutoff    1e-4
  #
      radial_base         34 7.0
      radial_multiplier   2
      angular_grids specified
        division   0.2187   50
        division   0.4416  110
        division   0.6335  194
        division   0.7727  302
        division   0.8772  434
  #      division   0.9334  590
  #      division   0.9924  770
  #      division   1.0230  974
  #      division   1.5020 1202
  #     outer_grid  974
        outer_grid  434
  ################################################################################
  #
  #  Definition of "minimal" basis
  #
  ################################################################################
  #     valence basis states
      valence      2  s   2.
      valence      2  p   2.
  #     ion occupancy
      ion_occ      2  s   1.
      ion_occ      2  p   1.
  ################################################################################
  #
  #  Suggested additional basis functions. For production calculations,
  #  uncomment them one after another (the most important basis functions are
  #  listed first).
  #
  #  Constructed for dimers: 1.0 A, 1.25 A, 1.5 A, 2.0 A, 3.0 A
  #
  ################################################################################
  #  "First tier" - improvements: -1214.57 meV to -155.61 meV
       hydro 2 p 1.7
       hydro 3 d 6
       hydro 2 s 4.9
  #  "Second tier" - improvements: -67.75 meV to -5.23 meV
       hydro 4 f 9.8
       hydro 3 p 5.2
       hydro 3 s 4.3
       hydro 5 g 14.4
       hydro 3 d 6.2
  #  "Third tier" - improvements: -2.43 meV to -0.60 meV
  #     hydro 2 p 5.6
  #     hydro 2 s 1.4
  #     hydro 3 d 4.9
  #     hydro 4 f 11.2
  #  "Fourth tier" - improvements: -0.39 meV to -0.18 meV
  #     hydro 2 p 2.1
  #     hydro 5 g 16.4
  #     hydro 4 d 13.2
  #     hydro 3 s 13.6
  #     hydro 4 f 17.6
  #  Further basis functions - improvements: -0.08 meV and below
  #     hydro 3 s 2
  #     hydro 3 p 6
  #     hydro 4 d 20
  ################################################################################
  #
  # For methods that use the localized form of the "resolution of identity" for
  # the two-electron Coulomb operator (RI_method LVL), particularly Hartree-Fock and
  # hybrid density functional calculations, the highest accuracy can be obtained by
  # uncommenting the line beginning with "for_aux"  below, thus adding an extra g radial
  # function to the construction of the product basis set for the expansion.
  # See Ref. New J. Phys. 17, 093020 (2015) for more information, particularly Figs. 1 and 6.
  #
  ################################################################################
  #
  # for_aux hydro 5 g 6.0
  
  ################################################################################
  #
  #  FHI-aims code project
  # Volker Blum, Fritz Haber Institute Berlin, 2009
  #
  #  Suggested "tight" defaults for S atom (to be pasted into control.in file)
  #
  #  Revised Jan 04, 2011, following tests (SiC) done by Lydia Nemec:
  #     d and g functions of tier 2 now enabled by default.
  #
  ################################################################################
    species        S
  #     global species definitions
      nucleus             16
      mass                32.065
  #
      l_hartree           6
  #
      cut_pot             4.0          2.0  1.0
      basis_dep_cutoff    1e-4
  #
      radial_base         44 7.0
      radial_multiplier   2
      angular_grids       specified
        division   0.4665  110
        division   0.5810  194
        division   0.7139  302
        division   0.8274  434
  #      division   0.9105  590
  #      division   1.0975  770
  #      division   1.2028  974
  #      outer_grid  974
        outer_grid  434
  ################################################################################
  #
  #  Definition of "minimal" basis
  #
  ################################################################################
  #     valence basis states
      valence      3  s   2.
      valence      3  p   4.
  #     ion occupancy
      ion_occ      3  s   1.
      ion_occ      3  p   3.
  ################################################################################
  #
  #  Suggested additional basis functions. For production calculations,
  #  uncomment them one after another (the most important basis functions are
  #  listed first).
  #
  #  Constructed for dimers: 1.6 A, 1.9 A, 2.5 A, 3.25 A, 4.0 A
  #
  ################################################################################
  #  "First tier" - improvements: -652.81 meV to -45.53 meV
       ionic 3 d auto
       hydro 2 p 1.8
       hydro 4 f 7
       ionic 3 s auto
  #  "Second tier" - improvements: -30.20 meV to -1.74 meV
       hydro 4 d 6.2
       hydro 5 g 10.8
  #     hydro 4 p 4.9
  #     hydro 5 f 10
  #     hydro 1 s 0.8
  #  "Third tier" - improvements: -1.04 meV to -0.20 meV
  #     hydro 3 d 3.9
  #     hydro 3 d 2.7
  #     hydro 5 g 12
  #     hydro 4 p 10.4
  #     hydro 5 f 12.4
  #     hydro 2 s 1.9
  #  "Fourth tier" - improvements: -0.35 meV to -0.06 meV
  #     hydro 4 d 10.4
  #     hydro 4 p 7.2
  #     hydro 4 d 10
  #     hydro 5 g 19.2
  #     hydro 4 s 12
  
  ################################################################################
  #
  # For methods that use the localized form of the "resolution of identity" for
  # the two-electron Coulomb operator (RI_method LVL), particularly Hartree-Fock and
  # hybrid density functional calculations, the highest accuracy can be obtained by
  # uncommenting the line beginning with "for_aux"  below, thus adding an extra g radial
  # function to the construction of the product basis set for the expansion.
  # See Ref. New J. Phys. 17, 093020 (2015) for more information, particularly Figs. 1 and 6.
  #
  ################################################################################
  #
  # for_aux hydro 5 g 6.0
  
  ################################################################################
  #
  #  FHI-aims code project
  # Volker Blum, Fritz Haber Institute Berlin, 2009
  #
  #  Suggested "tight" defaults for O atom (to be pasted into control.in file)
  #
  ################################################################################
    species        O
  #     global species definitions
      nucleus             8
      mass                15.9994
  #
      l_hartree           6
  #
      cut_pot             4.0  2.0  1.0
      basis_dep_cutoff    1e-4
  #
      radial_base         36 7.0
      radial_multiplier   2
       angular_grids specified
        division   0.1817   50
        division   0.3417  110
        division   0.4949  194
        division   0.6251  302
        division   0.8014  434
  #      division   0.8507  590
  #      division   0.8762  770
  #      division   0.9023  974
  #      division   1.2339 1202
  #      outer_grid 974
        outer_grid  434
  ################################################################################
  #
  #  Definition of "minimal" basis
  #
  ################################################################################
  #     valence basis states
      valence      2  s   2.
      valence      2  p   4.
  #     ion occupancy
      ion_occ      2  s   1.
      ion_occ      2  p   3.
  ################################################################################
  #
  #  Suggested additional basis functions. For production calculations,
  #  uncomment them one after another (the most important basis functions are
  #  listed first).
  #
  #  Constructed for dimers: 1.0 A, 1.208 A, 1.5 A, 2.0 A, 3.0 A
  #
  ################################################################################
  #  "First tier" - improvements: -699.05 meV to -159.38 meV
       hydro 2 p 1.8
       hydro 3 d 7.6
       hydro 3 s 6.4
  #  "Second tier" - improvements: -49.91 meV to -5.39 meV
       hydro 4 f 11.6
       hydro 3 p 6.2
       hydro 3 d 5.6
       hydro 5 g 17.6
       hydro 1 s 0.75
  #  "Third tier" - improvements: -2.83 meV to -0.50 meV
  #     ionic 2 p auto
  #     hydro 4 f 10.8
  #     hydro 4 d 4.7
  #     hydro 2 s 6.8
  #  "Fourth tier" - improvements: -0.40 meV to -0.12 meV
  #     hydro 3 p 5
  #     hydro 3 s 3.3
  #     hydro 5 g 15.6
  #     hydro 4 f 17.6
  #     hydro 4 d 14
  # Further basis functions - -0.08 meV and below
  #     hydro 3 s 2.1
  #     hydro 4 d 11.6
  #     hydro 3 p 16
  #     hydro 2 s 17.2
  ################################################################################
  #
  # For methods that use the localized form of the "resolution of identity" for
  # the two-electron Coulomb operator (RI_method LVL), particularly Hartree-Fock and
  # hybrid density functional calculations, the highest accuracy can be obtained by
  # uncommenting the line beginning with "for_aux"  below, thus adding an extra g radial
  # function to the construction of the product basis set for the expansion.
  # See Ref. New J. Phys. 17, 093020 (2015) for more information, particularly Figs. 1 and 6.
  #
  ################################################################################
  #
  # for_aux hydro 5 g 6.0
  
  -----------------------------------------------------------------------
  Completed first pass over input file control.in .
  -----------------------------------------------------------------------
  
  
  -----------------------------------------------------------------------
  Parsing geometry.in (first pass over file, find array dimensions only).
  The contents of geometry.in will be repeated verbatim below
  unless switched off by setting 'verbatim_writeout .false.' .
  in the first line of geometry.in .
  -----------------------------------------------------------------------
  
  atom 17.34425 23.95571 23.81962 H
  constrain_relaxation .true.
  atom 16.53695 23.23868 23.67060 C
    constrain_relaxation .true.
  atom 17.67373 22.04316 22.26811 H
  constrain_relaxation .true.
  atom -1.74553 28.60509 22.47089 H
  constrain_relaxation .true.
  atom 16.72448 22.17254 22.78748 C
  constrain_relaxation .true.
  atom -1.07558 28.01685 23.09762 C
  constrain_relaxation .true.
  atom 1.09212 28.92771 21.53918 S
  constrain_relaxation .true.
  atom -2.62954 27.34993 24.42743 H
  constrain_relaxation .true.
  atom 15.20447 24.22198 25.05791 H
  constrain_relaxation .true.
  atom -1.56356 27.31419 24.20254 C
  constrain_relaxation .true.
  atom 15.34078 23.39248 24.36605 C
  constrain_relaxation .true.
  atom 0.29606 27.96824 22.81460 C
  constrain_relaxation .true.
  atom -0.71214 26.57685 25.02343 C
  constrain_relaxation .true.
  atom 1.15874 27.22530 23.62325 C
  constrain_relaxation .true.
  atom 0.66907 26.52235 24.74129 C
  constrain_relaxation .true.
  atom -1.10398 26.03611 25.88343 H
  constrain_relaxation .true.
  atom 15.68244 21.25340 22.58566 C
  constrain_relaxation .true.
  atom 15.87098 19.78914 21.58210 S
  constrain_relaxation .true.
  atom 2.22305 27.18975 23.39718 H
  constrain_relaxation .true.
  atom 14.29495 22.46224 24.18686 C
  constrain_relaxation .true.
  atom 1.59886 25.78062 25.51201 C
  constrain_relaxation .true.
  atom 14.47783 21.39848 23.27952 C
  constrain_relaxation .true.
  atom 4.87426 24.90511 24.89590 H
  atom 13.06956 22.54058 24.89492 C
  constrain_relaxation .true.
  atom 2.50302 25.16625 26.05527 C
  constrain_relaxation .true.
  atom 4.78228 24.32721 25.81465 C
  constrain_relaxation .true.
  atom 11.99028 22.49497 25.46343 C
  constrain_relaxation .true.
  atom 3.58704 24.40579 26.55894 C
  atom 6.71938 23.43647 25.60732 H
  atom 5.82020 23.49483 26.21938 C
  atom 13.67164 20.68258 23.12839 H
  constrain_relaxation .true.
  atom 10.52375 24.27543 26.92666 H
  atom 10.71715 22.30302 26.05631 C
  atom 10.04467 23.30768 26.78348 C
  atom 3.50093 23.67135 27.75948 C
  atom 8.77653 23.07281 27.30358 C
  atom 10.08166 21.05456 25.90388 C
  atom 8.27486 23.86334 27.86229 H
  atom 10.59428 20.26164 25.36101 H
  atom 5.70639 22.71882 27.37962 C
  atom 2.59458 23.73527 28.36029 H
  atom 8.12940 21.84108 27.11440 C
  atom 8.81426 20.83156 26.42828 C
  atom 4.54577 22.84679 28.15642 C
  atom 6.72487 21.59759 27.71817 C
  constrain_relaxation .true.
  atom 8.35261 19.85588 26.29053 H
  atom 4.44961 22.26193 29.07123 H
  atom 6.07233 20.31043 27.15072 C
  atom 6.08382 21.05419 25.11727 H
  atom 5.79925 20.23436 25.77569 C
  atom 5.90355 19.28085 29.03378 H
  atom 5.68976 19.24235 27.96582 C
  atom 5.15381 19.13466 25.23308 C
  atom 4.94128 19.09485 24.16546 H
  atom 5.02645 18.13684 27.43353 C
  atom 4.73625 18.06980 26.05941 C
  atom 4.71892 17.31933 28.08440 H
  atom 3.99966 16.99530 25.49568 C
  constrain_relaxation .true.
  atom 3.32555 16.13738 24.95127 C
  constrain_relaxation .true.
  atom 4.02132 14.32680 23.08339 H
  constrain_relaxation .true.
  atom 2.47006 15.19687 24.31948 C
  constrain_relaxation .true.
  atom 2.96344 14.31161 23.34040 C
  constrain_relaxation .true.
  atom 1.09937 15.16315 24.65122 C
  constrain_relaxation .true.
  atom 0.72163 15.84980 25.40698 H
  constrain_relaxation .true.
  atom 2.09582 13.41576 22.70909 C
  constrain_relaxation .true.
  atom 2.72772 12.16990 21.59991 S
  constrain_relaxation .true.
  atom 0.24399 14.27379 24.00754 C
  constrain_relaxation .true.
  atom 0.72943 13.40076 23.03603 C
  constrain_relaxation .true.
  atom -0.81597 14.26047 24.26096 H
  constrain_relaxation .true.
  atom 0.06122 12.70147 22.53509 H
  constrain_relaxation .true.
  atom -0.03570 29.33458 20.91420 H
  constrain_relaxation .true.
  atom 1.51944 11.72180 21.19759 H
  constrain_relaxation .true.
  atom 17.03980 20.14982 21.00745 H
  constrain_relaxation .true.
  atom          6.91528       21.51178       29.17061 C
  constrain_relaxation .true.
  atom          7.11606       21.45627       30.36984 C
  constrain_relaxation .true.
  atom 10.13816022347103 21.808994742268336 35.81005696469801 H
  constrain_relaxation .true.
  atom 10.65493142583061 21.666752512705834 38.22877336941373 H
  constrain_relaxation .true.
  atom 9.372955446655038 21.46908999418583 36.50879221475268 C
  constrain_relaxation .true.
  atom 9.662378307689682 21.396721593514652 37.86862989363013 C
  constrain_relaxation .true.
  atom 9.268697322801916 20.387087662514826 31.570799896495277 H
  constrain_relaxation .true.
  atom 9.665004163202195 20.252444019754236 34.0100241015892 H
  constrain_relaxation .true.
  atom 8.538661975275366 20.79556332720641 32.268125494273356 C
  constrain_relaxation .true.
  atom 8.757884995874685 20.728815894697938 33.636910095513755 C
  constrain_relaxation .true.
  atom 7.3589162014227885 21.38364646779061 31.769584620886228 C
  constrain_relaxation .true.
  atom 7.825663564956519 21.232198753401413 34.562146343344764 C
  constrain_relaxation .true.
  atom 8.097972100727057 21.14270102737209 36.013350076003306 C
  constrain_relaxation .true.
  atom 8.67304697029581 20.98925795744268 38.765476124948215 C
  constrain_relaxation .true.
  atom 8.885220799479802 20.931612341404062 39.83290862724564 H
  constrain_relaxation .true.
  atom 6.427514765025304 21.897482929531723 32.69043084679046 C
  constrain_relaxation .true.
  atom 6.643341474726007 21.834848375336865 34.06872761940534 C
  constrain_relaxation .true.
  atom 6.134875275810289 23.121356199506344 35.70763155237728 H
  constrain_relaxation .true.
  atom 5.62623178294047 22.442188520507585 34.99978691259774 C
  constrain_relaxation .true.
  atom 5.51923855342921 22.368674913432283 32.31363793091159 H
  constrain_relaxation .true.
  atom 7.100923999146631 20.71857161851696 36.923901597104155 C
  constrain_relaxation .true.
  atom 7.40687594840367 20.653988846250826 38.28931114576428 C
  constrain_relaxation .true.
  atom 4.879947193823068 23.031396685370808 34.45500443728821 H
  constrain_relaxation .true.
  atom 4.881858878359185 21.43616608856768 35.877304590345 C
  constrain_relaxation .true.
  atom 6.636054857395678 20.322264338203983 38.98682754888204 H
  constrain_relaxation .true.
  atom 5.731512324824625 20.3035077749312 36.4513708534711 C
  constrain_relaxation .true.
  atom 5.829765336117973 19.5714819594587 35.62929875051807 H
  constrain_relaxation .true.
  atom 3.6932113674597824 21.53244537900149 36.10310299261175 O
  constrain_relaxation .true.
  atom 5.156599949488523 19.82392761328956 37.25171400128032 H
  constrain_relaxation .true.
  
  -----------------------------------------------------------------------
  Completed first pass over input file geometry.in .
  -----------------------------------------------------------------------
  

  Basic array size parameters:
  | Number of species                 :        5
  | Number of atoms                   :      102
  | Max. basis fn. angular momentum   :        4
  | Max. atomic/ionic basis occupied n:        6
  | Max. number of basis fn. types    :        3
  | Max. radial fns per species/type  :       14
  | Max. logarithmic grid size        :     1488
  | Max. radial integration grid size :      147
  | Max. angular integration grid size:      434
  | Max. angular grid division number :        8
  | Radial grid for Hartree potential :     1488
  | Number of spin channels           :        1

------------------------------------------------------------
          Reading file control.in.
------------------------------------------------------------
  XC: Using PBE gradient-corrected functionals.
  Spin treatment: No spin polarisation.
  Maximum number of s.-c. iterations  :   500
  Hirshfeld charge analysis will be performed.
  Full Mulliken charge analysis will be written to file 'Mulliken.out'.
  Geometry relaxation: Modified BFGS - TRM (trust radius method) for lattice optimization.
  Convergence accuracy for geometry relaxation: Maximum force <   0.100000E-01 eV/A.
  Storing only matrices local to each thread.
  Using load balancing for integrations.
  Full copy of Hartree potential on each thread requested explicitly.
 
  Reading configuration options for species Au                  .
  | Found nuclear charge :  79.0000
  | Found atomic mass :    196.966569000000      amu
  | Found l_max for Hartree potential  :   6
  | Found cutoff potl. onset [A], width [A], scale factor :    4.00000    2.00000    1.00000
  | Threshold for basis-dependent cutoff potential is   0.100000E-03
  | Found data for basic radial integration grid :    73 points, outermost radius =    7.000 A
  | Found multiplier for basic radial grid :   2
  | Found angular grid specification: user-specified.
  | Specified grid contains     6 separate shells.
  | Check grid settings after all constraints further below.
  | Found free-atom valence shell :  6 s   1.000
  | Found free-atom valence shell :  5 p   6.000
  | Found free-atom valence shell :  5 d  10.000
  | Found free-atom valence shell :  4 f  14.000
  | Found free-ion valence shell :  6 s   0.000
  | Found free-ion valence shell :  5 p   6.000
  | Found free-ion valence shell :  5 d   9.000
  | Found free-ion valence shell :  4 f  14.000
  | Found ionic basis function :  6 p , default cutoff radius.
  | Found hydrogenic basis function :  4 f   7.400
  | Found ionic basis function :  6 s , default cutoff radius.
  | Found hydrogenic basis function :  5 g  10.000
  | Found hydrogenic basis function :  3 d   2.500
  Species Au                  : Missing cutoff potential type.
  Defaulting to exp(1/x)/(1-x)^2 type cutoff potential.
  Species Au: No 'logarithmic' tag. Using default grid for free atom:
  | Default logarithmic grid data [bohr] : 0.1000E-03 0.1000E+03 0.1012E+01
  | Will include ionic basis functions of  2.0-fold positive Au                   ion.
  Species Au: On-site basis accuracy parameter (for Gram-Schmidt orthonormalisation) not specified.
  Using default value basis_acc =  0.1000000E-03.
  Species Au                  : Using default innermost maximum threshold i_radial=  2 for radial functions.
  Species Au                  : Default cutoff onset for free atom density etc. : 0.40000000E+01 AA.
  Species Au                  : Basic radial grid will be enhanced according to radial_multiplier =   2, to contain   147 grid points.
 
  Reading configuration options for species H                   .
  | Found nuclear charge :   1.0000
  | Found atomic mass :    1.00794000000000      amu
  | Found l_max for Hartree potential  :   6
  | Found cutoff potl. onset [A], width [A], scale factor :    4.00000    2.00000    1.00000
  | Threshold for basis-dependent cutoff potential is   0.100000E-03
  | Found data for basic radial integration grid :    24 points, outermost radius =    7.000 A
  | Found multiplier for basic radial grid :   2
  | Found angular grid specification: user-specified.
  | Specified grid contains     6 separate shells.
  | Check grid settings after all constraints further below.
  | Found free-atom valence shell :  1 s   1.000
  | Found free-ion valence shell :  1 s   0.500
  | Found hydrogenic basis function :  2 s   2.100
  | Found hydrogenic basis function :  2 p   3.500
  | Found hydrogenic basis function :  1 s   0.850
  | Found hydrogenic basis function :  2 p   3.700
  | Found hydrogenic basis function :  2 s   1.200
  | Found hydrogenic basis function :  3 d   7.000
  Species H                   : Missing cutoff potential type.
  Defaulting to exp(1/x)/(1-x)^2 type cutoff potential.
  Species H : No 'logarithmic' tag. Using default grid for free atom:
  | Default logarithmic grid data [bohr] : 0.1000E-03 0.1000E+03 0.1012E+01
  Species H : On-site basis accuracy parameter (for Gram-Schmidt orthonormalisation) not specified.
  Using default value basis_acc =  0.1000000E-03.
  Species H                   : Using default innermost maximum threshold i_radial=  2 for radial functions.
  Species H                   : Default cutoff onset for free atom density etc. : 0.40000000E+01 AA.
  Species H                   : Basic radial grid will be enhanced according to radial_multiplier =   2, to contain    49 grid points.
 
  Reading configuration options for species C                   .
  | Found nuclear charge :   6.0000
  | Found atomic mass :    12.0107000000000      amu
  | Found l_max for Hartree potential  :   6
  | Found cutoff potl. onset [A], width [A], scale factor :    4.00000    2.00000    1.00000
  | Threshold for basis-dependent cutoff potential is   0.100000E-03
  | Found data for basic radial integration grid :    34 points, outermost radius =    7.000 A
  | Found multiplier for basic radial grid :   2
  | Found angular grid specification: user-specified.
  | Specified grid contains     6 separate shells.
  | Check grid settings after all constraints further below.
  | Found free-atom valence shell :  2 s   2.000
  | Found free-atom valence shell :  2 p   2.000
  | Found free-ion valence shell :  2 s   1.000
  | Found free-ion valence shell :  2 p   1.000
  | Found hydrogenic basis function :  2 p   1.700
  | Found hydrogenic basis function :  3 d   6.000
  | Found hydrogenic basis function :  2 s   4.900
  | Found hydrogenic basis function :  4 f   9.800
  | Found hydrogenic basis function :  3 p   5.200
  | Found hydrogenic basis function :  3 s   4.300
  | Found hydrogenic basis function :  5 g  14.400
  | Found hydrogenic basis function :  3 d   6.200
  Species C                   : Missing cutoff potential type.
  Defaulting to exp(1/x)/(1-x)^2 type cutoff potential.
  Species C : No 'logarithmic' tag. Using default grid for free atom:
  | Default logarithmic grid data [bohr] : 0.1000E-03 0.1000E+03 0.1012E+01
  Species C : On-site basis accuracy parameter (for Gram-Schmidt orthonormalisation) not specified.
  Using default value basis_acc =  0.1000000E-03.
  Species C                   : Using default innermost maximum threshold i_radial=  2 for radial functions.
  Species C                   : Default cutoff onset for free atom density etc. : 0.40000000E+01 AA.
  Species C                   : Basic radial grid will be enhanced according to radial_multiplier =   2, to contain    69 grid points.
 
  Reading configuration options for species S                   .
  | Found nuclear charge :  16.0000
  | Found atomic mass :    32.0650000000000      amu
  | Found l_max for Hartree potential  :   6
  | Found cutoff potl. onset [A], width [A], scale factor :    4.00000    2.00000    1.00000
  | Threshold for basis-dependent cutoff potential is   0.100000E-03
  | Found data for basic radial integration grid :    44 points, outermost radius =    7.000 A
  | Found multiplier for basic radial grid :   2
  | Found angular grid specification: user-specified.
  | Specified grid contains     5 separate shells.
  | Check grid settings after all constraints further below.
  | Found free-atom valence shell :  3 s   2.000
  | Found free-atom valence shell :  3 p   4.000
  | Found free-ion valence shell :  3 s   1.000
  | Found free-ion valence shell :  3 p   3.000
  | Found ionic basis function :  3 d , default cutoff radius.
  | Found hydrogenic basis function :  2 p   1.800
  | Found hydrogenic basis function :  4 f   7.000
  | Found ionic basis function :  3 s , default cutoff radius.
  | Found hydrogenic basis function :  4 d   6.200
  | Found hydrogenic basis function :  5 g  10.800
  Species S                   : Missing cutoff potential type.
  Defaulting to exp(1/x)/(1-x)^2 type cutoff potential.
  Species S : No 'logarithmic' tag. Using default grid for free atom:
  | Default logarithmic grid data [bohr] : 0.1000E-03 0.1000E+03 0.1012E+01
  | Will include ionic basis functions of  2.0-fold positive S                    ion.
  Species S : On-site basis accuracy parameter (for Gram-Schmidt orthonormalisation) not specified.
  Using default value basis_acc =  0.1000000E-03.
  Species S                   : Using default innermost maximum threshold i_radial=  2 for radial functions.
  Species S                   : Default cutoff onset for free atom density etc. : 0.40000000E+01 AA.
  Species S                   : Basic radial grid will be enhanced according to radial_multiplier =   2, to contain    89 grid points.
 
  Reading configuration options for species O                   .
  | Found nuclear charge :   8.0000
  | Found atomic mass :    15.9994000000000      amu
  | Found l_max for Hartree potential  :   6
  | Found cutoff potl. onset [A], width [A], scale factor :    4.00000    2.00000    1.00000
  | Threshold for basis-dependent cutoff potential is   0.100000E-03
  | Found data for basic radial integration grid :    36 points, outermost radius =    7.000 A
  | Found multiplier for basic radial grid :   2
  | Found angular grid specification: user-specified.
  | Specified grid contains     6 separate shells.
  | Check grid settings after all constraints further below.
  | Found free-atom valence shell :  2 s   2.000
  | Found free-atom valence shell :  2 p   4.000
  | Found free-ion valence shell :  2 s   1.000
  | Found free-ion valence shell :  2 p   3.000
  | Found hydrogenic basis function :  2 p   1.800
  | Found hydrogenic basis function :  3 d   7.600
  | Found hydrogenic basis function :  3 s   6.400
  | Found hydrogenic basis function :  4 f  11.600
  | Found hydrogenic basis function :  3 p   6.200
  | Found hydrogenic basis function :  3 d   5.600
  | Found hydrogenic basis function :  5 g  17.600
  | Found hydrogenic basis function :  1 s   0.750
  Species O                   : Missing cutoff potential type.
  Defaulting to exp(1/x)/(1-x)^2 type cutoff potential.
  Species O : No 'logarithmic' tag. Using default grid for free atom:
  | Default logarithmic grid data [bohr] : 0.1000E-03 0.1000E+03 0.1012E+01
  Species O : On-site basis accuracy parameter (for Gram-Schmidt orthonormalisation) not specified.
  Using default value basis_acc =  0.1000000E-03.
  Species O                   : Using default innermost maximum threshold i_radial=  2 for radial functions.
  Species O                   : Default cutoff onset for free atom density etc. : 0.40000000E+01 AA.
  Species O                   : Basic radial grid will be enhanced according to radial_multiplier =   2, to contain    73 grid points.
 
  Finished reading input file 'control.in'.
 
------------------------------------------------------------


------------------------------------------------------------
          Reading geometry description geometry.in.
------------------------------------------------------------
  Found relaxation constraint for atom      1: All coordinates fixed.
  Found relaxation constraint for atom      2: All coordinates fixed.
  Found relaxation constraint for atom      3: All coordinates fixed.
  Found relaxation constraint for atom      4: All coordinates fixed.
  Found relaxation constraint for atom      5: All coordinates fixed.
  Found relaxation constraint for atom      6: All coordinates fixed.
  Found relaxation constraint for atom      7: All coordinates fixed.
  Found relaxation constraint for atom      8: All coordinates fixed.
  Found relaxation constraint for atom      9: All coordinates fixed.
  Found relaxation constraint for atom     10: All coordinates fixed.
  Found relaxation constraint for atom     11: All coordinates fixed.
  Found relaxation constraint for atom     12: All coordinates fixed.
  Found relaxation constraint for atom     13: All coordinates fixed.
  Found relaxation constraint for atom     14: All coordinates fixed.
  Found relaxation constraint for atom     15: All coordinates fixed.
  Found relaxation constraint for atom     16: All coordinates fixed.
  Found relaxation constraint for atom     17: All coordinates fixed.
  Found relaxation constraint for atom     18: All coordinates fixed.
  Found relaxation constraint for atom     19: All coordinates fixed.
  Found relaxation constraint for atom     20: All coordinates fixed.
  Found relaxation constraint for atom     21: All coordinates fixed.
  Found relaxation constraint for atom     22: All coordinates fixed.
  Found relaxation constraint for atom     24: All coordinates fixed.
  Found relaxation constraint for atom     25: All coordinates fixed.
  Found relaxation constraint for atom     26: All coordinates fixed.
  Found relaxation constraint for atom     27: All coordinates fixed.
  Found relaxation constraint for atom     31: All coordinates fixed.
  Found relaxation constraint for atom     45: All coordinates fixed.
  Found relaxation constraint for atom     58: All coordinates fixed.
  Found relaxation constraint for atom     59: All coordinates fixed.
  Found relaxation constraint for atom     60: All coordinates fixed.
  Found relaxation constraint for atom     61: All coordinates fixed.
  Found relaxation constraint for atom     62: All coordinates fixed.
  Found relaxation constraint for atom     63: All coordinates fixed.
  Found relaxation constraint for atom     64: All coordinates fixed.
  Found relaxation constraint for atom     65: All coordinates fixed.
  Found relaxation constraint for atom     66: All coordinates fixed.
  Found relaxation constraint for atom     67: All coordinates fixed.
  Found relaxation constraint for atom     68: All coordinates fixed.
  Found relaxation constraint for atom     69: All coordinates fixed.
  Found relaxation constraint for atom     70: All coordinates fixed.
  Found relaxation constraint for atom     71: All coordinates fixed.
  Found relaxation constraint for atom     72: All coordinates fixed.
  Found relaxation constraint for atom     73: All coordinates fixed.
  Found relaxation constraint for atom     74: All coordinates fixed.
  Found relaxation constraint for atom     75: All coordinates fixed.
  Found relaxation constraint for atom     76: All coordinates fixed.
  Found relaxation constraint for atom     77: All coordinates fixed.
  Found relaxation constraint for atom     78: All coordinates fixed.
  Found relaxation constraint for atom     79: All coordinates fixed.
  Found relaxation constraint for atom     80: All coordinates fixed.
  Found relaxation constraint for atom     81: All coordinates fixed.
  Found relaxation constraint for atom     82: All coordinates fixed.
  Found relaxation constraint for atom     83: All coordinates fixed.
  Found relaxation constraint for atom     84: All coordinates fixed.
  Found relaxation constraint for atom     85: All coordinates fixed.
  Found relaxation constraint for atom     86: All coordinates fixed.
  Found relaxation constraint for atom     87: All coordinates fixed.
  Found relaxation constraint for atom     88: All coordinates fixed.
  Found relaxation constraint for atom     89: All coordinates fixed.
  Found relaxation constraint for atom     90: All coordinates fixed.
  Found relaxation constraint for atom     91: All coordinates fixed.
  Found relaxation constraint for atom     92: All coordinates fixed.
  Found relaxation constraint for atom     93: All coordinates fixed.
  Found relaxation constraint for atom     94: All coordinates fixed.
  Found relaxation constraint for atom     95: All coordinates fixed.
  Found relaxation constraint for atom     96: All coordinates fixed.
  Found relaxation constraint for atom     97: All coordinates fixed.
  Found relaxation constraint for atom     98: All coordinates fixed.
  Found relaxation constraint for atom     99: All coordinates fixed.
  Found relaxation constraint for atom    100: All coordinates fixed.
  Found relaxation constraint for atom    101: All coordinates fixed.
  Found relaxation constraint for atom    102: All coordinates fixed.
  | The smallest distance between any two atoms is         1.08813935 AA.
  | The first atom of this pair is atom number                     43 .
  | The second atom of this pair is atom number                    46 .
  Input structure read successfully.
  The structure contains      102 atoms,  and a total of        454.000 electrons.

  Input geometry:
  | No unit cell requested.
  | Atomic structure:
  |       Atom                x [A]            y [A]            z [A]
  |    1: Species H            17.34425000       23.95571000       23.81962000
  |    2: Species C            16.53695000       23.23868000       23.67060000
  |    3: Species H            17.67373000       22.04316000       22.26811000
  |    4: Species H            -1.74553000       28.60509000       22.47089000
  |    5: Species C            16.72448000       22.17254000       22.78748000
  |    6: Species C            -1.07558000       28.01685000       23.09762000
  |    7: Species S             1.09212000       28.92771000       21.53918000
  |    8: Species H            -2.62954000       27.34993000       24.42743000
  |    9: Species H            15.20447000       24.22198000       25.05791000
  |   10: Species C            -1.56356000       27.31419000       24.20254000
  |   11: Species C            15.34078000       23.39248000       24.36605000
  |   12: Species C             0.29606000       27.96824000       22.81460000
  |   13: Species C            -0.71214000       26.57685000       25.02343000
  |   14: Species C             1.15874000       27.22530000       23.62325000
  |   15: Species C             0.66907000       26.52235000       24.74129000
  |   16: Species H            -1.10398000       26.03611000       25.88343000
  |   17: Species C            15.68244000       21.25340000       22.58566000
  |   18: Species S            15.87098000       19.78914000       21.58210000
  |   19: Species H             2.22305000       27.18975000       23.39718000
  |   20: Species C            14.29495000       22.46224000       24.18686000
  |   21: Species C             1.59886000       25.78062000       25.51201000
  |   22: Species C            14.47783000       21.39848000       23.27952000
  |   23: Species H             4.87426000       24.90511000       24.89590000
  |   24: Species C            13.06956000       22.54058000       24.89492000
  |   25: Species C             2.50302000       25.16625000       26.05527000
  |   26: Species C             4.78228000       24.32721000       25.81465000
  |   27: Species C            11.99028000       22.49497000       25.46343000
  |   28: Species C             3.58704000       24.40579000       26.55894000
  |   29: Species H             6.71938000       23.43647000       25.60732000
  |   30: Species C             5.82020000       23.49483000       26.21938000
  |   31: Species H            13.67164000       20.68258000       23.12839000
  |   32: Species H            10.52375000       24.27543000       26.92666000
  |   33: Species C            10.71715000       22.30302000       26.05631000
  |   34: Species C            10.04467000       23.30768000       26.78348000
  |   35: Species C             3.50093000       23.67135000       27.75948000
  |   36: Species C             8.77653000       23.07281000       27.30358000
  |   37: Species C            10.08166000       21.05456000       25.90388000
  |   38: Species H             8.27486000       23.86334000       27.86229000
  |   39: Species H            10.59428000       20.26164000       25.36101000
  |   40: Species C             5.70639000       22.71882000       27.37962000
  |   41: Species H             2.59458000       23.73527000       28.36029000
  |   42: Species C             8.12940000       21.84108000       27.11440000
  |   43: Species C             8.81426000       20.83156000       26.42828000
  |   44: Species C             4.54577000       22.84679000       28.15642000
  |   45: Species C             6.72487000       21.59759000       27.71817000
  |   46: Species H             8.35261000       19.85588000       26.29053000
  |   47: Species H             4.44961000       22.26193000       29.07123000
  |   48: Species C             6.07233000       20.31043000       27.15072000
  |   49: Species H             6.08382000       21.05419000       25.11727000
  |   50: Species C             5.79925000       20.23436000       25.77569000
  |   51: Species H             5.90355000       19.28085000       29.03378000
  |   52: Species C             5.68976000       19.24235000       27.96582000
  |   53: Species C             5.15381000       19.13466000       25.23308000
  |   54: Species H             4.94128000       19.09485000       24.16546000
  |   55: Species C             5.02645000       18.13684000       27.43353000
  |   56: Species C             4.73625000       18.06980000       26.05941000
  |   57: Species H             4.71892000       17.31933000       28.08440000
  |   58: Species C             3.99966000       16.99530000       25.49568000
  |   59: Species C             3.32555000       16.13738000       24.95127000
  |   60: Species H             4.02132000       14.32680000       23.08339000
  |   61: Species C             2.47006000       15.19687000       24.31948000
  |   62: Species C             2.96344000       14.31161000       23.34040000
  |   63: Species C             1.09937000       15.16315000       24.65122000
  |   64: Species H             0.72163000       15.84980000       25.40698000
  |   65: Species C             2.09582000       13.41576000       22.70909000
  |   66: Species S             2.72772000       12.16990000       21.59991000
  |   67: Species C             0.24399000       14.27379000       24.00754000
  |   68: Species C             0.72943000       13.40076000       23.03603000
  |   69: Species H            -0.81597000       14.26047000       24.26096000
  |   70: Species H             0.06122000       12.70147000       22.53509000
  |   71: Species H            -0.03570000       29.33458000       20.91420000
  |   72: Species H             1.51944000       11.72180000       21.19759000
  |   73: Species H            17.03980000       20.14982000       21.00745000
  |   74: Species C             6.91528000       21.51178000       29.17061000
  |   75: Species C             7.11606000       21.45627000       30.36984000
  |   76: Species H            10.13816022       21.80899474       35.81005696
  |   77: Species H            10.65493143       21.66675251       38.22877337
  |   78: Species C             9.37295545       21.46908999       36.50879221
  |   79: Species C             9.66237831       21.39672159       37.86862989
  |   80: Species H             9.26869732       20.38708766       31.57079990
  |   81: Species H             9.66500416       20.25244402       34.01002410
  |   82: Species C             8.53866198       20.79556333       32.26812549
  |   83: Species C             8.75788500       20.72881589       33.63691010
  |   84: Species C             7.35891620       21.38364647       31.76958462
  |   85: Species C             7.82566356       21.23219875       34.56214634
  |   86: Species C             8.09797210       21.14270103       36.01335008
  |   87: Species C             8.67304697       20.98925796       38.76547612
  |   88: Species H             8.88522080       20.93161234       39.83290863
  |   89: Species C             6.42751477       21.89748293       32.69043085
  |   90: Species C             6.64334147       21.83484838       34.06872762
  |   91: Species H             6.13487528       23.12135620       35.70763155
  |   92: Species C             5.62623178       22.44218852       34.99978691
  |   93: Species H             5.51923855       22.36867491       32.31363793
  |   94: Species C             7.10092400       20.71857162       36.92390160
  |   95: Species C             7.40687595       20.65398885       38.28931115
  |   96: Species H             4.87994719       23.03139669       34.45500444
  |   97: Species C             4.88185888       21.43616609       35.87730459
  |   98: Species H             6.63605486       20.32226434       38.98682755
  |   99: Species C             5.73151232       20.30350777       36.45137085
  |  100: Species H             5.82976534       19.57148196       35.62929875
  |  101: Species O             3.69321137       21.53244538       36.10310299
  |  102: Species H             5.15659995       19.82392761       37.25171400

 
  Finished reading input file 'control.in'.
 

------------------------------------------------------------
          Reading geometry description geometry.in.
------------------------------------------------------------
 
  Consistency checks for stacksize environment parameter are next.
 
  | Maximum stacksize for task 0: unlimited
  | Maximum stacksize for task 1: unlimited
  | Maximum stacksize for task 2: unlimited
  | Maximum stacksize for task 3: unlimited
  | Maximum stacksize for task 4: unlimited
  | Maximum stacksize for task 5: unlimited
  | Maximum stacksize for task 6: unlimited
  | Maximum stacksize for task 7: unlimited
  | Maximum stacksize for task 8: unlimited
  | Maximum stacksize for task 9: unlimited
  | Maximum stacksize for task 10: unlimited
  | Maximum stacksize for task 11: unlimited
  | Maximum stacksize for task 12: unlimited
  | Maximum stacksize for task 13: unlimited
  | Maximum stacksize for task 14: unlimited
  | Maximum stacksize for task 15: unlimited
  | Maximum stacksize for task 16: unlimited
  | Maximum stacksize for task 17: unlimited
  | Maximum stacksize for task 18: unlimited
  | Maximum stacksize for task 19: unlimited
  | Maximum stacksize for task 20: unlimited
  | Maximum stacksize for task 21: unlimited
  | Maximum stacksize for task 22: unlimited
  | Maximum stacksize for task 23: unlimited
  | Maximum stacksize for task 24: unlimited
  | Maximum stacksize for task 25: unlimited
  | Maximum stacksize for task 26: unlimited
  | Maximum stacksize for task 27: unlimited
  | Maximum stacksize for task 28: unlimited
  | Maximum stacksize for task 29: unlimited
  | Maximum stacksize for task 30: unlimited
  | Maximum stacksize for task 31: unlimited
  | Maximum stacksize for task 32: unlimited
  | Maximum stacksize for task 33: unlimited
  | Maximum stacksize for task 34: unlimited
  | Maximum stacksize for task 35: unlimited
  | Maximum stacksize for task 36: unlimited
  | Maximum stacksize for task 37: unlimited
  | Maximum stacksize for task 38: unlimited
  | Maximum stacksize for task 39: unlimited
  | Maximum stacksize for task 40: unlimited
  | Maximum stacksize for task 41: unlimited
  | Maximum stacksize for task 42: unlimited
  | Maximum stacksize for task 43: unlimited
  | Maximum stacksize for task 44: unlimited
  | Maximum stacksize for task 45: unlimited
  | Maximum stacksize for task 46: unlimited
  | Maximum stacksize for task 47: unlimited
  | Maximum stacksize for task 48: unlimited
  | Maximum stacksize for task 49: unlimited
  | Maximum stacksize for task 50: unlimited
  | Maximum stacksize for task 51: unlimited
  | Maximum stacksize for task 52: unlimited
  | Maximum stacksize for task 53: unlimited
  | Maximum stacksize for task 54: unlimited
  | Maximum stacksize for task 55: unlimited
  | Maximum stacksize for task 56: unlimited
  | Maximum stacksize for task 57: unlimited
  | Maximum stacksize for task 58: unlimited
  | Maximum stacksize for task 59: unlimited
  | Maximum stacksize for task 60: unlimited
  | Maximum stacksize for task 61: unlimited
  | Maximum stacksize for task 62: unlimited
  | Maximum stacksize for task 63: unlimited
  | Maximum stacksize for task 64: unlimited
  | Maximum stacksize for task 65: unlimited
  | Maximum stacksize for task 66: unlimited
  | Maximum stacksize for task 67: unlimited
  | Maximum stacksize for task 68: unlimited
  | Maximum stacksize for task 69: unlimited
  | Maximum stacksize for task 70: unlimited
  | Maximum stacksize for task 71: unlimited
  | Maximum stacksize for task 72: unlimited
  | Maximum stacksize for task 73: unlimited
  | Maximum stacksize for task 74: unlimited
  | Maximum stacksize for task 75: unlimited
  | Maximum stacksize for task 76: unlimited
  | Maximum stacksize for task 77: unlimited
  | Maximum stacksize for task 78: unlimited
  | Maximum stacksize for task 79: unlimited
  | Maximum stacksize for task 80: unlimited
  | Maximum stacksize for task 81: unlimited
  | Maximum stacksize for task 82: unlimited
  | Maximum stacksize for task 83: unlimited
  | Maximum stacksize for task 84: unlimited
  | Maximum stacksize for task 85: unlimited
  | Maximum stacksize for task 86: unlimited
  | Maximum stacksize for task 87: unlimited
  | Maximum stacksize for task 88: unlimited
  | Maximum stacksize for task 89: unlimited
  | Maximum stacksize for task 90: unlimited
  | Maximum stacksize for task 91: unlimited
  | Maximum stacksize for task 92: unlimited
  | Maximum stacksize for task 93: unlimited
  | Maximum stacksize for task 94: unlimited
  | Maximum stacksize for task 95: unlimited
  | Maximum stacksize for task 96: unlimited
  | Maximum stacksize for task 97: unlimited
  | Maximum stacksize for task 98: unlimited
  | Maximum stacksize for task 99: unlimited
  | Maximum stacksize for task 100: unlimited
  | Maximum stacksize for task 101: unlimited
  | Maximum stacksize for task 102: unlimited
  | Maximum stacksize for task 103: unlimited
  | Maximum stacksize for task 104: unlimited
  | Maximum stacksize for task 105: unlimited
  | Maximum stacksize for task 106: unlimited
  | Maximum stacksize for task 107: unlimited
  | Maximum stacksize for task 108: unlimited
  | Maximum stacksize for task 109: unlimited
  | Maximum stacksize for task 110: unlimited
  | Maximum stacksize for task 111: unlimited
  | Maximum stacksize for task 112: unlimited
  | Maximum stacksize for task 113: unlimited
  | Maximum stacksize for task 114: unlimited
  | Maximum stacksize for task 115: unlimited
  | Maximum stacksize for task 116: unlimited
  | Maximum stacksize for task 117: unlimited
  | Maximum stacksize for task 118: unlimited
  | Maximum stacksize for task 119: unlimited
  | Maximum stacksize for task 120: unlimited
  | Maximum stacksize for task 121: unlimited
  | Maximum stacksize for task 122: unlimited
  | Maximum stacksize for task 123: unlimited
  | Maximum stacksize for task 124: unlimited
  | Maximum stacksize for task 125: unlimited
  | Maximum stacksize for task 126: unlimited
  | Maximum stacksize for task 127: unlimited
  | Maximum stacksize for task 128: unlimited
  | Maximum stacksize for task 129: unlimited
  | Maximum stacksize for task 130: unlimited
  | Maximum stacksize for task 131: unlimited
  | Maximum stacksize for task 132: unlimited
  | Maximum stacksize for task 133: unlimited
  | Maximum stacksize for task 134: unlimited
  | Maximum stacksize for task 135: unlimited
  | Maximum stacksize for task 136: unlimited
  | Maximum stacksize for task 137: unlimited
  | Maximum stacksize for task 138: unlimited
  | Maximum stacksize for task 139: unlimited
  | Maximum stacksize for task 140: unlimited
  | Maximum stacksize for task 141: unlimited
  | Maximum stacksize for task 142: unlimited
  | Maximum stacksize for task 143: unlimited
  | Maximum stacksize for task 144: unlimited
  | Maximum stacksize for task 145: unlimited
  | Maximum stacksize for task 146: unlimited
  | Maximum stacksize for task 147: unlimited
  | Maximum stacksize for task 148: unlimited
  | Maximum stacksize for task 149: unlimited
  | Maximum stacksize for task 150: unlimited
  | Maximum stacksize for task 151: unlimited
  | Maximum stacksize for task 152: unlimited
  | Maximum stacksize for task 153: unlimited
  | Maximum stacksize for task 154: unlimited
  | Maximum stacksize for task 155: unlimited
  | Maximum stacksize for task 156: unlimited
  | Maximum stacksize for task 157: unlimited
  | Maximum stacksize for task 158: unlimited
  | Maximum stacksize for task 159: unlimited
  | Maximum stacksize for task 160: unlimited
  | Maximum stacksize for task 161: unlimited
  | Maximum stacksize for task 162: unlimited
  | Maximum stacksize for task 163: unlimited
  | Maximum stacksize for task 164: unlimited
  | Maximum stacksize for task 165: unlimited
  | Maximum stacksize for task 166: unlimited
  | Maximum stacksize for task 167: unlimited
  | Maximum stacksize for task 168: unlimited
  | Maximum stacksize for task 169: unlimited
  | Maximum stacksize for task 170: unlimited
  | Maximum stacksize for task 171: unlimited
  | Maximum stacksize for task 172: unlimited
  | Maximum stacksize for task 173: unlimited
  | Maximum stacksize for task 174: unlimited
  | Maximum stacksize for task 175: unlimited
  | Maximum stacksize for task 176: unlimited
  | Maximum stacksize for task 177: unlimited
  | Maximum stacksize for task 178: unlimited
  | Maximum stacksize for task 179: unlimited
  | Maximum stacksize for task 180: unlimited
  | Maximum stacksize for task 181: unlimited
  | Maximum stacksize for task 182: unlimited
  | Maximum stacksize for task 183: unlimited
  | Maximum stacksize for task 184: unlimited
  | Maximum stacksize for task 185: unlimited
  | Maximum stacksize for task 186: unlimited
  | Maximum stacksize for task 187: unlimited
  | Maximum stacksize for task 188: unlimited
  | Maximum stacksize for task 189: unlimited
  | Maximum stacksize for task 190: unlimited
  | Maximum stacksize for task 191: unlimited
  | Current stacksize for task 0: unlimited
  | Current stacksize for task 1: unlimited
  | Current stacksize for task 2: unlimited
  | Current stacksize for task 3: unlimited
  | Current stacksize for task 4: unlimited
  | Current stacksize for task 5: unlimited
  | Current stacksize for task 6: unlimited
  | Current stacksize for task 7: unlimited
  | Current stacksize for task 8: unlimited
  | Current stacksize for task 9: unlimited
  | Current stacksize for task 10: unlimited
  | Current stacksize for task 11: unlimited
  | Current stacksize for task 12: unlimited
  | Current stacksize for task 13: unlimited
  | Current stacksize for task 14: unlimited
  | Current stacksize for task 15: unlimited
  | Current stacksize for task 16: unlimited
  | Current stacksize for task 17: unlimited
  | Current stacksize for task 18: unlimited
  | Current stacksize for task 19: unlimited
  | Current stacksize for task 20: unlimited
  | Current stacksize for task 21: unlimited
  | Current stacksize for task 22: unlimited
  | Current stacksize for task 23: unlimited
  | Current stacksize for task 24: unlimited
  | Current stacksize for task 25: unlimited
  | Current stacksize for task 26: unlimited
  | Current stacksize for task 27: unlimited
  | Current stacksize for task 28: unlimited
  | Current stacksize for task 29: unlimited
  | Current stacksize for task 30: unlimited
  | Current stacksize for task 31: unlimited
  | Current stacksize for task 32: unlimited
  | Current stacksize for task 33: unlimited
  | Current stacksize for task 34: unlimited
  | Current stacksize for task 35: unlimited
  | Current stacksize for task 36: unlimited
  | Current stacksize for task 37: unlimited
  | Current stacksize for task 38: unlimited
  | Current stacksize for task 39: unlimited
  | Current stacksize for task 40: unlimited
  | Current stacksize for task 41: unlimited
  | Current stacksize for task 42: unlimited
  | Current stacksize for task 43: unlimited
  | Current stacksize for task 44: unlimited
  | Current stacksize for task 45: unlimited
  | Current stacksize for task 46: unlimited
  | Current stacksize for task 47: unlimited
  | Current stacksize for task 48: unlimited
  | Current stacksize for task 49: unlimited
  | Current stacksize for task 50: unlimited
  | Current stacksize for task 51: unlimited
  | Current stacksize for task 52: unlimited
  | Current stacksize for task 53: unlimited
  | Current stacksize for task 54: unlimited
  | Current stacksize for task 55: unlimited
  | Current stacksize for task 56: unlimited
  | Current stacksize for task 57: unlimited
  | Current stacksize for task 58: unlimited
  | Current stacksize for task 59: unlimited
  | Current stacksize for task 60: unlimited
  | Current stacksize for task 61: unlimited
  | Current stacksize for task 62: unlimited
  | Current stacksize for task 63: unlimited
  | Current stacksize for task 64: unlimited
  | Current stacksize for task 65: unlimited
  | Current stacksize for task 66: unlimited
  | Current stacksize for task 67: unlimited
  | Current stacksize for task 68: unlimited
  | Current stacksize for task 69: unlimited
  | Current stacksize for task 70: unlimited
  | Current stacksize for task 71: unlimited
  | Current stacksize for task 72: unlimited
  | Current stacksize for task 73: unlimited
  | Current stacksize for task 74: unlimited
  | Current stacksize for task 75: unlimited
  | Current stacksize for task 76: unlimited
  | Current stacksize for task 77: unlimited
  | Current stacksize for task 78: unlimited
  | Current stacksize for task 79: unlimited
  | Current stacksize for task 80: unlimited
  | Current stacksize for task 81: unlimited
  | Current stacksize for task 82: unlimited
  | Current stacksize for task 83: unlimited
  | Current stacksize for task 84: unlimited
  | Current stacksize for task 85: unlimited
  | Current stacksize for task 86: unlimited
  | Current stacksize for task 87: unlimited
  | Current stacksize for task 88: unlimited
  | Current stacksize for task 89: unlimited
  | Current stacksize for task 90: unlimited
  | Current stacksize for task 91: unlimited
  | Current stacksize for task 92: unlimited
  | Current stacksize for task 93: unlimited
  | Current stacksize for task 94: unlimited
  | Current stacksize for task 95: unlimited
  | Current stacksize for task 96: unlimited
  | Current stacksize for task 97: unlimited
  | Current stacksize for task 98: unlimited
  | Current stacksize for task 99: unlimited
  | Current stacksize for task 100: unlimited
  | Current stacksize for task 101: unlimited
  | Current stacksize for task 102: unlimited
  | Current stacksize for task 103: unlimited
  | Current stacksize for task 104: unlimited
  | Current stacksize for task 105: unlimited
  | Current stacksize for task 106: unlimited
  | Current stacksize for task 107: unlimited
  | Current stacksize for task 108: unlimited
  | Current stacksize for task 109: unlimited
  | Current stacksize for task 110: unlimited
  | Current stacksize for task 111: unlimited
  | Current stacksize for task 112: unlimited
  | Current stacksize for task 113: unlimited
  | Current stacksize for task 114: unlimited
  | Current stacksize for task 115: unlimited
  | Current stacksize for task 116: unlimited
  | Current stacksize for task 117: unlimited
  | Current stacksize for task 118: unlimited
  | Current stacksize for task 119: unlimited
  | Current stacksize for task 120: unlimited
  | Current stacksize for task 121: unlimited
  | Current stacksize for task 122: unlimited
  | Current stacksize for task 123: unlimited
  | Current stacksize for task 124: unlimited
  | Current stacksize for task 125: unlimited
  | Current stacksize for task 126: unlimited
  | Current stacksize for task 127: unlimited
  | Current stacksize for task 128: unlimited
  | Current stacksize for task 129: unlimited
  | Current stacksize for task 130: unlimited
  | Current stacksize for task 131: unlimited
  | Current stacksize for task 132: unlimited
  | Current stacksize for task 133: unlimited
  | Current stacksize for task 134: unlimited
  | Current stacksize for task 135: unlimited
  | Current stacksize for task 136: unlimited
  | Current stacksize for task 137: unlimited
  | Current stacksize for task 138: unlimited
  | Current stacksize for task 139: unlimited
  | Current stacksize for task 140: unlimited
  | Current stacksize for task 141: unlimited
  | Current stacksize for task 142: unlimited
  | Current stacksize for task 143: unlimited
  | Current stacksize for task 144: unlimited
  | Current stacksize for task 145: unlimited
  | Current stacksize for task 146: unlimited
  | Current stacksize for task 147: unlimited
  | Current stacksize for task 148: unlimited
  | Current stacksize for task 149: unlimited
  | Current stacksize for task 150: unlimited
  | Current stacksize for task 151: unlimited
  | Current stacksize for task 152: unlimited
  | Current stacksize for task 153: unlimited
  | Current stacksize for task 154: unlimited
  | Current stacksize for task 155: unlimited
  | Current stacksize for task 156: unlimited
  | Current stacksize for task 157: unlimited
  | Current stacksize for task 158: unlimited
  | Current stacksize for task 159: unlimited
  | Current stacksize for task 160: unlimited
  | Current stacksize for task 161: unlimited
  | Current stacksize for task 162: unlimited
  | Current stacksize for task 163: unlimited
  | Current stacksize for task 164: unlimited
  | Current stacksize for task 165: unlimited
  | Current stacksize for task 166: unlimited
  | Current stacksize for task 167: unlimited
  | Current stacksize for task 168: unlimited
  | Current stacksize for task 169: unlimited
  | Current stacksize for task 170: unlimited
  | Current stacksize for task 171: unlimited
  | Current stacksize for task 172: unlimited
  | Current stacksize for task 173: unlimited
  | Current stacksize for task 174: unlimited
  | Current stacksize for task 175: unlimited
  | Current stacksize for task 176: unlimited
  | Current stacksize for task 177: unlimited
  | Current stacksize for task 178: unlimited
  | Current stacksize for task 179: unlimited
  | Current stacksize for task 180: unlimited
  | Current stacksize for task 181: unlimited
  | Current stacksize for task 182: unlimited
  | Current stacksize for task 183: unlimited
  | Current stacksize for task 184: unlimited
  | Current stacksize for task 185: unlimited
  | Current stacksize for task 186: unlimited
  | Current stacksize for task 187: unlimited
  | Current stacksize for task 188: unlimited
  | Current stacksize for task 189: unlimited
  | Current stacksize for task 190: unlimited
  | Current stacksize for task 191: unlimited
 
  Consistency checks for the contents of control.in are next.
 
  MPI_IN_PLACE appears to work with this MPI implementation.
  | Keeping use_mpi_in_place .true. (see manual).
[...]
  |                                  0.00285147       0.10856461      -0.00301527
  |                                  0.00503483      -0.00301527       0.09684223
  ----------------------------------------------------------------------
  | Atom    81: H
  |   Hirshfeld charge        :      0.04816563
  |   Free atom volume        :     10.31591070
  |   Hirshfeld volume        :      6.62482109
  |   Hirshfeld dipole vector :      0.07711278      -0.04319055       0.02131297
  |   Hirshfeld dipole moment :      0.09091780
  |   Hirshfeld second moments:      0.09907013       0.00399598      -0.00888480
  |                                  0.00399598       0.10606070      -0.00002938
  |                                 -0.00888480      -0.00002938       0.09367371
  ----------------------------------------------------------------------
  | Atom    82: C
  |   Hirshfeld charge        :     -0.04004674
  |   Free atom volume        :     38.38815825
  |   Hirshfeld volume        :     31.31303095
  |   Hirshfeld dipole vector :      0.01628447      -0.00800183      -0.01869737
  |   Hirshfeld dipole moment :      0.02605388
  |   Hirshfeld second moments:      0.14758674       0.04220685      -0.01647865
  |                                  0.04220685       0.20896310       0.00366067
  |                                 -0.01647865       0.00366067       0.10070117
  ----------------------------------------------------------------------
  | Atom    83: C
  |   Hirshfeld charge        :     -0.04214296
  |   Free atom volume        :     38.38815825
  |   Hirshfeld volume        :     31.45573390
  |   Hirshfeld dipole vector :      0.02075722      -0.00751748       0.00834250
  |   Hirshfeld dipole moment :      0.02360026
  |   Hirshfeld second moments:      0.15187334       0.04035925       0.00091267
  |                                  0.04035925       0.21016397      -0.00658207
  |                                  0.00091267      -0.00658207       0.08666363
  ----------------------------------------------------------------------
  | Atom    84: C
  |   Hirshfeld charge        :      0.00330384
  |   Free atom volume        :     38.38815825
  |   Hirshfeld volume        :     32.30967843
  |   Hirshfeld dipole vector :     -0.00296885       0.00157714      -0.02444824
  |   Hirshfeld dipole moment :      0.02467829
  |   Hirshfeld second moments:      0.12425564       0.05402939      -0.00357955
  |                                  0.05402939       0.20231817      -0.00249531
  |                                 -0.00357955      -0.00249531       0.08743201
  ----------------------------------------------------------------------
  | Atom    85: C
  |   Hirshfeld charge        :     -0.00202020
  |   Free atom volume        :     38.38815825
  |   Hirshfeld volume        :     32.64046752
  |   Hirshfeld dipole vector :      0.00312805       0.00006516       0.02366909
  |   Hirshfeld dipole moment :      0.02387498
  |   Hirshfeld second moments:      0.11557562       0.05649843      -0.00090290
  |                                  0.05649843       0.20600125      -0.00331654
  |                                 -0.00090290      -0.00331654       0.08100584
  ----------------------------------------------------------------------
  | Atom    86: C
  |   Hirshfeld charge        :     -0.00444438
  |   Free atom volume        :     38.38815825
  |   Hirshfeld volume        :     32.68877898
  |   Hirshfeld dipole vector :     -0.00616424       0.00025724      -0.02333012
  |   Hirshfeld dipole moment :      0.02413210
  |   Hirshfeld second moments:      0.09540660      -0.03660850      -0.00682642
  |                                 -0.03660850       0.21877252       0.01530479
  |                                 -0.00682642       0.01530479       0.08441463
  ----------------------------------------------------------------------
  | Atom    87: C
  |   Hirshfeld charge        :     -0.04438997
  |   Free atom volume        :     38.38815825
  |   Hirshfeld volume        :     31.19440902
  |   Hirshfeld dipole vector :      0.00685264      -0.00132403       0.02908241
  |   Hirshfeld dipole moment :      0.02990816
  |   Hirshfeld second moments:      0.11366077      -0.03323654       0.00252552
  |                                 -0.03323654       0.21070366       0.01123005
  |                                  0.00252552       0.01123005       0.13155869
  ----------------------------------------------------------------------
  | Atom    88: H
  |   Hirshfeld charge        :      0.04969778
  |   Free atom volume        :     10.31591070
  |   Hirshfeld volume        :      6.25676463
  |   Hirshfeld dipole vector :      0.01848997      -0.00491862       0.09231391
  |   Hirshfeld dipole moment :      0.09427582
  |   Hirshfeld second moments:      0.11563520       0.00266157      -0.00396790
  |                                  0.00266157       0.10959139       0.00021732
  |                                 -0.00396790       0.00021732       0.09631668
  ----------------------------------------------------------------------
  | Atom    89: C
  |   Hirshfeld charge        :     -0.04124737
  |   Free atom volume        :     38.38815825
  |   Hirshfeld volume        :     31.52544235
  |   Hirshfeld dipole vector :     -0.01563572       0.00963086      -0.00946299
  |   Hirshfeld dipole moment :      0.02065859
  |   Hirshfeld second moments:      0.14974627       0.04546103       0.00972189
  |                                  0.04546103       0.21060231      -0.00889101
  |                                  0.00972189      -0.00889101       0.08809547
  ----------------------------------------------------------------------
  | Atom    90: C
  |   Hirshfeld charge        :      0.00523996
  |   Free atom volume        :     38.38815825
  |   Hirshfeld volume        :     32.40150597
  |   Hirshfeld dipole vector :     -0.01822706       0.01362883       0.02140013
  |   Hirshfeld dipole moment :      0.03123998
  |   Hirshfeld second moments:      0.12603943       0.06074708       0.00070877
  |                                  0.06074708       0.20677692      -0.00240847
  |                                  0.00070877      -0.00240847       0.08228329
  ----------------------------------------------------------------------
  | Atom    91: H
  |   Hirshfeld charge        :      0.05813441
  |   Free atom volume        :     10.31591070
  |   Hirshfeld volume        :      6.70999197
  |   Hirshfeld dipole vector :      0.03416686       0.06660188       0.05280065
  |   Hirshfeld dipole moment :      0.09160291
  |   Hirshfeld second moments:      0.09709960      -0.00114406      -0.00862582
  |                                 -0.00114406       0.10120039      -0.00448274
  |                                 -0.00862582      -0.00448274       0.09870599
  ----------------------------------------------------------------------
  | Atom    92: C
  |   Hirshfeld charge        :     -0.07529432
  |   Free atom volume        :     38.38815825
  |   Hirshfeld volume        :     31.03765287
  |   Hirshfeld dipole vector :      0.00217502      -0.00372147      -0.00608021
  |   Hirshfeld dipole moment :      0.00745312
  |   Hirshfeld second moments:      0.13978790       0.01096132       0.01798268
  |                                  0.01096132       0.17994095       0.00739483
  |                                  0.01798268       0.00739483       0.15406862
  ----------------------------------------------------------------------
  | Atom    93: H
  |   Hirshfeld charge        :      0.04920798
  |   Free atom volume        :     10.31591070
  |   Hirshfeld volume        :      6.69077614
  |   Hirshfeld dipole vector :     -0.07627624       0.03960910      -0.03064001
  |   Hirshfeld dipole moment :      0.09124558
  |   Hirshfeld second moments:      0.09773105       0.00726160      -0.00107534
  |                                  0.00726160       0.10676752       0.00023065
  |                                 -0.00107534       0.00023065       0.09220624
  ----------------------------------------------------------------------
  | Atom    94: C
  |   Hirshfeld charge        :      0.00428518
  |   Free atom volume        :     38.38815825
  |   Hirshfeld volume        :     32.46176699
  |   Hirshfeld dipole vector :     -0.02701724      -0.00985974      -0.01173421
  |   Hirshfeld dipole moment :      0.03106183
  |   Hirshfeld second moments:      0.10290126      -0.04112890      -0.01137391
  |                                 -0.04112890       0.22162797       0.01817846
  |                                 -0.01137391       0.01817846       0.08664087
  ----------------------------------------------------------------------
  | Atom    95: C
  |   Hirshfeld charge        :     -0.04658810
  |   Free atom volume        :     38.38815825
  |   Hirshfeld volume        :     31.38258819
  |   Hirshfeld dipole vector :     -0.01703469      -0.00792751       0.01697537
  |   Hirshfeld dipole moment :      0.02532172
  |   Hirshfeld second moments:      0.11601834      -0.03198866      -0.02284468
  |                                 -0.03198866       0.21546878       0.00709727
  |                                 -0.02284468       0.00709727       0.11700248
  ----------------------------------------------------------------------
  | Atom    96: H
  |   Hirshfeld charge        :      0.05082171
  |   Free atom volume        :     10.31591070
  |   Hirshfeld volume        :      6.75258951
  |   Hirshfeld dipole vector :     -0.05521589       0.05434645      -0.04446129
  |   Hirshfeld dipole moment :      0.08932602
  |   Hirshfeld second moments:      0.08794836       0.00584606       0.00462730
  |                                  0.00584606       0.10731535       0.00734806
  |                                  0.00462730       0.00734806       0.09669128
  ----------------------------------------------------------------------
  | Atom    97: C
  |   Hirshfeld charge        :      0.15810306
  |   Free atom volume        :     38.38815825
  |   Hirshfeld volume        :     31.89931754
  |   Hirshfeld dipole vector :      0.01930317      -0.00126496      -0.00349244
  |   Hirshfeld dipole moment :      0.01965731
  |   Hirshfeld second moments:      0.07783705       0.02758223       0.04149471
  |                                  0.02758223       0.18093549       0.09645819
  |                                  0.04149471       0.09645819       0.24564794
  ----------------------------------------------------------------------
  | Atom    98: H
  |   Hirshfeld charge        :      0.04788891
  |   Free atom volume        :     10.31591070
  |   Hirshfeld volume        :      6.45003307
  |   Hirshfeld dipole vector :     -0.06176973      -0.02718843       0.06328819
  |   Hirshfeld dipole moment :      0.09252084
  |   Hirshfeld second moments:      0.09760833      -0.00461270       0.00469105
  |                                 -0.00461270       0.10801424       0.00215192
  |                                  0.00469105       0.00215192       0.10378710
  ----------------------------------------------------------------------
  | Atom    99: C
  |   Hirshfeld charge        :     -0.07605742
  |   Free atom volume        :     38.38815825
  |   Hirshfeld volume        :     31.06212375
  |   Hirshfeld dipole vector :      0.00473210       0.00352877       0.00484117
  |   Hirshfeld dipole moment :      0.00763426
  |   Hirshfeld second moments:      0.12734123       0.00020790      -0.00659315
  |                                  0.00020790       0.18116536       0.01148146
  |                                 -0.00659315       0.01148146       0.16339915
  ----------------------------------------------------------------------
  | Atom   100: H
  |   Hirshfeld charge        :      0.05733082
  |   Free atom volume        :     10.31591070
  |   Hirshfeld volume        :      6.71281864
  |   Hirshfeld dipole vector :      0.00161159      -0.06947747      -0.05933284
  |   Hirshfeld dipole moment :      0.09137889
  |   Hirshfeld second moments:      0.10274156      -0.00070734       0.00581182
  |                                 -0.00070734       0.10080065      -0.00594421
  |                                  0.00581182      -0.00594421       0.09290673
  ----------------------------------------------------------------------
  | Atom   101: O
  |   Hirshfeld charge        :     -0.22210834
  |   Free atom volume        :     23.75028826
  |   Hirshfeld volume        :     22.63008175
  |   Hirshfeld dipole vector :      0.05429622      -0.00429620      -0.01024758
  |   Hirshfeld dipole moment :      0.05542156
  |   Hirshfeld second moments:     -0.02237886       0.00894051       0.01247150
  |                                  0.00894051       0.00888855       0.03251475
  |                                  0.01247150       0.03251475       0.02610294
  ----------------------------------------------------------------------
  | Atom   102: H
  |   Hirshfeld charge        :      0.05029829
  |   Free atom volume        :     10.31591070
  |   Hirshfeld volume        :      6.76526070
  |   Hirshfeld dipole vector :     -0.04254563      -0.04590180       0.06328567
  |   Hirshfeld dipole moment :      0.08900664
  |   Hirshfeld second moments:      0.08537546       0.00069548       0.00096778
  |                                  0.00069548       0.10797372       0.00865898
  |                                  0.00096778       0.00865898       0.09756773
  ----------------------------------------------------------------------


------------------------------------------------------------------------------
  Final output of selected total energy values:

  The following output summarizes some interesting total energy values
  at the end of a run (AFTER all relaxation, molecular dynamics, etc.).

  | Total energy of the DFT / Hartree-Fock s.c.f. calculation      :         -97321.664341728 eV
  | Final zero-broadening corrected energy (caution - metals only) :         -97321.664341728 eV
  | For reference only, the value of 1 Hartree used in FHI-aims is :             27.211384500 eV

  Before relying on these values, please be sure to understand exactly which
  total energy value is referred to by a given number. Different objects may
  all carry the same name 'total energy'. Definitions:

  Total energy of the DFT / Hartree-Fock s.c.f. calculation:
  | Note that this energy does not include ANY quantities calculated after the
  | s.c.f. cycle, in particular not ANY RPA, MP2, etc. many-body perturbation terms.

  Final zero-broadening corrected energy:
  | For metallic systems only, a broadening of the occupation numbers at the Fermi
  | level can be extrapolated back to zero broadening by an electron-gas inspired
  | formula. For all systems that are not real metals, this value can be
  | meaningless and should be avoided.

------------------------------------------------------------------------------
  Methods described in the following list of references were used in this FHI-aims run.
  If you publish the results, please make sure to cite these reference if they apply.
  FHI-aims is an academic code, and for our developers (often, Ph.D. students
  and postdocs), scientific credit in the community is essential.
  Thank you for helping us!

  For any use of FHI-aims, please cite:

    Volker Blum, Ralf Gehrke, Felix Hanke, Paula Havu, Ville Havu,
    Xinguo Ren, Karsten Reuter, and Matthias Scheffler
    'Ab initio molecular simulations with numeric atom-centered orbitals'
    Computer Physics Communications 180, 2175-2196 (2009)
    http://dx.doi.org/10.1016/j.cpc.2009.06.022


  The ELSI infrastructure was used in your run to solve the Kohn-Sham electronic structure.
  Please check out http://elsi-interchange.org to learn more.
  If scalability is important for your project, please acknowledge ELSI by citing:

    V. W-z. Yu, F. Corsetti, A. Garcia, W. P. Huhn, M. Jacquelin, W. Jia,
    B. Lange, L. Lin, J. Lu, W. Mi, A. Seifitokaldani, A. Vazquez-Mayagoitia,
    C. Yang, H. Yang, and V. Blum
    'ELSI: A unified software interface for Kohn-Sham electronic structure solvers'
    Computer Physics Communications 222, 267-285 (2018).
    http://dx.doi.org/10.1016/j.cpc.2017.09.007


  For the real-space grid partitioning and parallelization used in this calculation, please cite:

    Ville Havu, Volker Blum, Paula Havu, and Matthias Scheffler,
    'Efficient O(N) integration for all-electron electronic structure calculation'
    'using numerically tabulated basis functions'
    Journal of Computational Physics 228, 8367-8379 (2009).
    http://dx.doi.org/10.1016/j.jcp.2009.08.008

  Of course, there are many other important community references, e.g., those cited in the
  above references. Our list is limited to references that describe implementations in the
  FHI-aims code. The reason is purely practical (length of this list) - please credit others as well.

------------------------------------------------------------
          Leaving FHI-aims.
          Date     :  20240514, Time     :  224110.615

          Computational steps:
          | Number of self-consistency cycles          :           92
          | Number of SCF (re)initializations          :            9
          | Number of relaxation steps                 :            8

          Detailed time accounting                     :  max(cpu_time)    wall_clock(cpu1)
          | Total time                                  :      266.472 s         266.831 s
          | Preparation time                            :        0.651 s           1.002 s
          | Boundary condition initalization            :        3.583 s           0.011 s
          | Grid partitioning                           :        9.788 s           9.788 s
          | Preloading free-atom quantities on grid     :        4.483 s           4.483 s
          | Free-atom superposition energy              :        0.357 s           0.356 s
          | Total time for integrations                 :       40.604 s          40.572 s
          | Total time for solution of K.-S. equations  :       26.354 s          26.332 s
          | Total time for EV reorthonormalization      :        0.497 s           0.497 s
          | Total time for density & force components   :       98.461 s          98.421 s
          | Total time for mixing                       :        0.584 s           0.439 s
          | Total time for Hartree multipole update     :        1.654 s           1.644 s
          | Total time for Hartree multipole sum        :       55.398 s          55.389 s
          | Total time for total energy evaluation      :        0.032 s           0.015 s
          | Total time NSC force correction             :       14.658 s          14.657 s
          | Total time for vdW correction               :        2.086 s           2.085 s
          | Total time for Mulliken analysis            :        0.126 s           0.126 s

          Partial memory accounting:
          | Residual value for overall tracked memory usage across tasks:     0.000000 MB (should be 0.000000 MB)
          | Peak values for overall tracked memory usage:
          |   Minimum:       33.173 MB (on task   6 after allocating hessian_basis_wave)
          |   Maximum:       38.185 MB (on task 171 after allocating wave)
          |   Average:       34.332 MB
          | Largest tracked array allocation:
          |   Minimum:       11.134 MB (KS_eigenvector on task   0)
          |   Maximum:       11.134 MB (KS_eigenvector on task   0)
          |   Average:       11.134 MB
          Note:  These values currently only include a subset of arrays which are explicitly tracked.
          The "true" memory usage will be greater.

          Have a nice day.
------------------------------------------------------------
